# vtk DataFile Version 3.0
MPM particles frame 3
ASCII
DATASET UNSTRUCTURED_GRID

POINTS 1135 float
18.36953353881836 24.269485473632812 1.1744883060455322
18.287931442260742 24.21933364868164 0.9294089078903198
18.02597999572754 24.184175491333008 0.8180207014083862
18.255399703979492 24.166851043701172 0.339587926864624
18.174285888671875 24.1627140045166 0.23083479702472687
18.688642501831055 24.19934844970703 1.0685513019561768
18.213722229003906 24.23445701599121 0.5266558527946472
18.410755157470703 24.27652931213379 1.2359493970870972
19.03120231628418 24.305261611938477 0.5794402956962585
17.898366928100586 24.197607040405273 0.9144017100334167
18.194974899291992 24.186613082885742 1.0384660959243774
18.057207107543945 24.15835189819336 0.2955496907234192
17.96071434020996 24.185867309570312 0.6555992364883423
18.898771286010742 24.162105560302734 0.7593780755996704
18.09590721130371 24.146665573120117 0.3957381248474121
17.93026351928711 24.230701446533203 1.088952898979187
18.858909606933594 24.163745880126953 0.5723365545272827
18.231983184814453 24.136844635009766 0.2980988323688507
18.308950424194336 24.191890716552734 1.210671305656433
18.94706153869629 24.19815444946289 0.4110013544559479
18.488983154296875 24.197843551635742 0.22341370582580566
17.907758712768555 24.275054931640625 0.8677855134010315
18.15715980529785 24.22744369506836 0.8266308307647705
17.7761173248291 24.15521240234375 0.8363721370697021
18.042444229125977 24.178810119628906 0.3439285457134247
18.88994789123535 24.203763961791992 0.867226243019104
18.053157806396484 24.153379440307617 0.5504152178764343
17.919057846069336 24.151765823364258 0.40691569447517395
18.190746307373047 24.179828643798828 0.36648598313331604
18.892780303955078 24.148664474487305 0.9124640226364136
18.136119842529297 24.233259201049805 0.4950551390647888
18.77206039428711 24.289833068847656 0.6343175172805786
18.194040298461914 24.28112030029297 0.18006770312786102
18.908475875854492 24.27251625061035 0.5592937469482422
18.05945587158203 24.282766342163086 1.0576733350753784
18.44910430908203 24.253366470336914 0.07864505052566528
18.314783096313477 24.322402954101562 1.0299073457717896
18.088647842407227 24.26161003112793 1.1636589765548706
18.51144790649414 24.291532516479492 0.2958866059780121
18.264257431030273 24.296293258666992 0.7535367012023926
17.899717330932617 24.301212310791016 0.38311895728111267
17.94793128967285 24.24171257019043 0.7542648315429688
18.51287078857422 24.249048233032227 0.9478462338447571
18.17523956298828 24.299659729003906 0.5075164437294006
18.59977912902832 24.27045440673828 0.739978015422821
18.15488624572754 24.300886154174805 0.501740574836731
18.63492774963379 24.297605514526367 0.1459493488073349
18.390058517456055 24.284618377685547 0.7463565468788147
18.558971405029297 24.25664520263672 0.4875180423259735
18.838167190551758 24.377944946289062 1.1498531103134155
18.0300235748291 24.248598098754883 1.1667851209640503
18.241092681884766 24.308429718017578 0.2566162943840027
18.675636291503906 24.344669342041016 0.8273366689682007
18.53753089904785 24.295854568481445 0.956125795841217
17.89769744873047 24.27448844909668 1.1395362615585327
18.59347915649414 24.359657287597656 0.23524799942970276
18.27431869506836 24.314359664916992 1.3279706239700317
18.5087947845459 24.2663631439209 1.05112624168396
18.742977142333984 24.29181671142578 0.38776662945747375
18.29827117919922 24.26779556274414 1.227837324142456
18.817920684814453 24.32900619506836 1.175782322883606
18.557315826416016 24.462860107421875 0.896837055683136
17.969072341918945 24.34984016418457 0.38720548152923584
17.90635108947754 24.350679397583008 0.8485399484634399
18.64800262451172 24.417518615722656 0.38002094626426697
18.815519332885742 24.488929748535156 0.4766848683357239
18.785011291503906 24.422765731811523 0.3023585379123688
17.888429641723633 24.46987533569336 1.0149341821670532
18.456329345703125 24.40239906311035 1.385166883468628
18.160619735717773 24.382322311401367 0.11967727541923523
18.296424865722656 24.378976821899414 0.8982813358306885
18.589738845825195 24.368328094482422 0.5967498421669006
18.763694763183594 24.419233322143555 0.42823952436447144
18.8297176361084 24.397546768188477 0.3056318759918213
18.14482879638672 24.284242630004883 0.49143609404563904
18.24048614501953 24.42304039001465 1.1611714363098145
18.930524826049805 24.39104652404785 0.517325222492218
18.65145492553711 24.33949851989746 1.1083883047103882
17.929643630981445 24.336883544921875 0.5777865052223206
17.865890502929688 24.546112060546875 0.418785035610199
18.51920509338379 24.390037536621094 0.9037736654281616
18.869216918945312 24.432819366455078 0.2971794903278351
18.727434158325195 24.364334106445312 1.1890888214111328
18.425724029541016 24.345073699951172 1.151354193687439
18.999361038208008 24.401369094848633 1.104549527168274
18.696334838867188 24.364673614501953 1.132861852645874
18.154695510864258 24.319120407104492 0.8520753383636475
18.490379333496094 24.28557777404785 0.27509355545043945
17.944669723510742 24.33901023864746 0.2708818018436432
18.704011917114258 24.410234451293945 0.23599325120449066
18.729738235473633 24.352745056152344 1.0829713344573975
18.958900451660156 24.431406021118164 0.5036532282829285
18.58112335205078 24.520416259765625 1.296528697013855
18.318010330200195 24.486040115356445 0.15404626727104187
19.005491256713867 24.464458465576172 0.6021731495857239
18.468265533447266 24.45182228088379 0.3906170725822449
18.689472198486328 24.495830535888672 1.2683526277542114
18.56639289855957 24.430522918701172 0.242727130651474
18.31601905822754 24.4024600982666 1.1698204278945923
18.795726776123047 24.42896842956543 1.135384440422058
18.987638473510742 24.420286178588867 0.3824603855609894
17.840511322021484 24.48615837097168 0.9469590187072754
18.622947692871094 24.468605041503906 0.3631248474121094
17.90251350402832 24.42856216430664 1.1457289457321167
18.295137405395508 24.5129451751709 1.0481550693511963
18.571882247924805 24.443830490112305 0.8614032864570618
18.87143898010254 24.489521026611328 0.2581290304660797
18.577722549438477 24.481239318847656 1.1557953357696533
19.072481155395508 24.40750503540039 0.5528497695922852
18.700885772705078 24.445749282836914 0.34228602051734924
18.483369827270508 24.502750396728516 0.7875365614891052
18.005449295043945 24.51251983642578 0.36127525568008423
18.054698944091797 24.478639602661133 0.3232347071170807
18.921213150024414 24.549091339111328 0.9788840413093567
18.426515579223633 24.549304962158203 0.48132383823394775
17.986692428588867 24.474388122558594 0.34491389989852905
18.148174285888672 24.487545013427734 0.7737316489219666
18.774442672729492 24.486650466918945 0.9634562134742737
17.792278289794922 24.601211547851562 0.5955115556716919
19.04672622680664 24.539989471435547 0.5993315577507019
18.280353546142578 24.51944923400879 0.07095105201005936
18.498756408691406 24.493181228637695 0.6225315928459167
18.735074996948242 24.59184455871582 0.532011091709137
18.560985565185547 24.5751953125 0.9779135584831238
18.44198989868164 24.60323715209961 0.7868682742118835
18.106599807739258 24.593931198120117 1.2908247709274292
17.882373809814453 24.61959457397461 1.0416128635406494
18.48271369934082 24.639978408813477 1.4324572086334229
18.660627365112305 24.51181411743164 0.28491804003715515
18.72382926940918 24.55068016052246 0.774319589138031
18.880691528320312 24.524808883666992 0.8302308320999146
18.29631805419922 24.448694229125977 1.234326958656311
18.105642318725586 24.57609748840332 0.8408395648002625
18.428251266479492 24.616357803344727 1.2142518758773804
18.151527404785156 24.5660457611084 1.2397328615188599
17.845552444458008 24.698408126831055 1.1359984874725342
17.77015495300293 24.589908599853516 0.5113425850868225
18.00735855102539 24.56493377685547 0.8496979475021362
18.59697151184082 24.600830078125 0.9241929650306702
18.875635147094727 24.558303833007812 0.8046308755874634
18.22361183166504 24.528709411621094 1.2966601848602295
18.327957153320312 24.56542205810547 0.5991876721382141
18.0887451171875 24.578590393066406 0.7966969013214111
18.201236724853516 24.495887756347656 0.5123965740203857
18.590505599975586 24.564546585083008 0.6296981573104858
18.089574813842773 24.53884506225586 0.21077796816825867
18.61532211303711 24.553173065185547 0.10121887922286987
19.00860595703125 24.465694427490234 0.5939639210700989
18.855907440185547 24.508895874023438 0.3208201825618744
18.392488479614258 24.608272552490234 0.09868528693914413
18.14682960510254 24.540666580200195 0.9931491017341614
18.439624786376953 24.5755558013916 0.6780439019203186
18.755752563476562 24.5804500579834 0.754456102848053
18.005773544311523 24.62117576599121 0.40941235423088074
18.362285614013672 24.626699447631836 0.931816816329956
18.17217254638672 24.633583068847656 0.27781879901885986
17.959524154663086 24.61354637145996 0.8322641849517822
18.956716537475586 24.687658309936523 1.0096070766448975
18.50208854675293 24.68138885498047 0.5626599192619324
18.212478637695312 24.655576705932617 0.7459145188331604
18.386600494384766 24.696292877197266 0.1412615180015564
18.921720504760742 24.66385269165039 0.35857632756233215
18.076541900634766 24.662811279296875 0.6159114241600037
19.037689208984375 24.66194725036621 0.5462579131126404
18.727293014526367 24.688018798828125 0.15339258313179016
18.40815544128418 24.46769142150879 1.2222501039505005
17.85557746887207 25.001440048217773 1.1126693487167358
17.929737091064453 24.67225456237793 0.8348676562309265
18.59820556640625 24.5875244140625 1.2889667749404907
19.042091369628906 24.575546264648438 0.5385178923606873
18.86504364013672 24.631519317626953 1.1392213106155396
18.051210403442383 24.66813087463379 0.5667583346366882
18.59442901611328 24.64887046813965 0.2923699617385864
18.564014434814453 24.654354095458984 0.8193898797035217
18.102558135986328 24.642547607421875 1.1250019073486328
18.651742935180664 24.598234176635742 1.311998963356018
[...]
POINT_DATA 1135
SCALARS radius float 1
LOOKUP_TABLE default
0.03
0.03
0.03
0.03
0.03
0.03
0.03
0.03
0.03
0.03
0.03
0.03
0.03
0.03
0.03
0.03
0.03
0.03
0.03
0.03
0.03
0.03
0.03
0.03
0.03
0.03
0.03
0.03
0.03
0.03
0.03
0.03
0.03
0.03
0.03
0.03
0.03
0.03
0.03
0.03
0.03
0.03
0.03
0.03
0.03
0.03
0.03
0.03
0.03
0.03
0.03
0.03
0.03
0.03
0.03
0.03
0.03
0.03
0.03
0.03
0.03
0.03
0.03
0.03
0.03
0.03
0.03
0.03
0.03
0.03
0.03
0.03
0.03
0.03
0.03
0.03
0.03
0.03
0.03
0.03
0.03
0.03
0.03
0.03
0.03
0.03
0.03
0.03
0.03
0.03
0.03
0.03
0.03
0.03
0.03
0.03
0.03
0.03
0.03
0.03
0.03
0.03
0.03
0.03
0.03
0.03
0.03
0.03
0.03
0.03
0.03
0.03
0.03
0.03
0.03
0.03
0.03
0.03
0.03
0.03
0.03
0.03
0.03
0.03
0.03
0.03
0.03
0.03
0.03
0.03
0.03
0.03
0.03
0.03
0.03
0.03
0.03
0.03
0.03
0.03
0.03
0.03
0.03
0.03
0.03
0.03
0.03
0.03
0.03
0.03
0.03
0.03
0.03
0.03
0.03
0.03
0.03
0.03
0.03
0.03
0.03
0.03
0.03
0.03
0.03
0.03
0.03
0.03
0.03
0.03
0.03
0.03
0.03
0.03
0.03
0.03
0.03
0.03
0.03
0.03
0.03
0.03
0.03
0.03
0.03
0.03
0.03
0.03
0.03
0.03
0.03
0.03
0.03
0.03
0.03
0.03
0.03
0.03
0.03
0.03
0.03
0.03
0.03
0.03
0.03
0.03
0.03
0.03
0.03
0.03
0.03
0.03
0.03
0.03
0.03
0.03
0.03
0.03
0.03
0.03
0.03
0.03
0.03
0.03
0.03
0.03
0.03
0.03
0.03
0.03
0.03
0.03
0.03
0.03
0.03
0.03
0.03
0.03
0.03
0.03
0.03
0.03
0.03
0.03
0.03
0.03
0.03
0.03
0.03
0.03
0.03
0.03
0.03
0.03
0.03
0.03
0.03
0.03
0.03
0.03
0.03
0.03
0.03
0.03
0.03
0.03
0.03
0.03
0.03
0.03
0.03
0.03
0.03
0.03
0.03
0.03
0.03
0.03
0.03
0.03
0.03
0.03
0.03
0.03
0.03
0.03
0.03
0.03
0.03
0.03
0.03
0.03
0.03
0.03
0.03
0.03
0.03
0.03
0.03
0.03
0.03
0.03
0.03
0.03
0.03
0.03
0.03
0.03
0.03
0.03
0.03
0.03
0.03
0.03
0.03
0.03
0.03
0.03
0.03
0.03
0.03
0.03
0.03
0.03
0.03
0.03
0.03
0.03
0.03
0.03
0.03
0.03
0.03
0.03
0.03
0.03
0.03
0.03
0.03
0.03
0.03
0.03
0.03
0.03
0.03
0.03
0.03
0.03
0.03
0.03
0.03
0.03
0.03
0.03
0.03
0.03
0.03
0.03
0.03
0.03
0.03
0.03
0.03
0.03
0.03
0.03
0.03
0.03
0.03
0.03
0.03
0.03
0.03
0.03
0.03
0.03
0.03
0.03
0.03
0.03
0.03
0.03
0.03
0.03
0.03
0.03
0.03
0.03
0.03
0.03
0.03
0.03
0.03
0.03
0.03
0.03
0.03
0.03
0.03
0.03
0.03
0.03
0.03
0.03
0.03
0.03
0.03
0.03
0.03
0.03
0.03
0.03
0.03
0.03
0.03
0.03
0.03
0.03
0.03
0.03
0.03
0.03
0.03
0.03
0.03
0.03
0.03
0.03
0.03
0.03
0.03
0.03
0.03
0.03
0.03
0.03
0.03
0.03
0.03
0.03
0.03
0.03
0.03
0.03
0.03
0.03
0.03
0.03
0.03
0.03
0.03
0.03
0.03
0.03
0.03
0.03
0.03
0.03
0.03
0.03
0.03
0.03
0.03
0.03
0.03
0.03
0.03
0.03
0.03
0.03
0.03
0.03
0.03
0.03
0.03
0.03
0.03
0.03
0.03
0.03
0.03
0.03
0.03
0.03
0.03
0.03
0.03
0.03
0.03
0.03
0.03
0.03
0.03
0.03
0.03
0.03
0.03
0.03
0.03
0.03
0.03
0.03
0.03
0.03
0.03
0.03
0.03
0.03
0.03
0.03
0.03
0.03
0.03
0.03
0.03
0.03
0.03
0.03
0.03
0.03
0.03
0.03
0.03
0.03
0.03
0.03
0.03
0.03
0.03
0.03
0.03
0.03
0.03
0.03
0.03
0.03
0.03
0.03
0.03
0.03
0.03
0.03
0.03
0.03
0.03
0.03
0.03
0.03
0.03
0.03
0.03
0.03
0.03
0.03
0.03
0.03
0.03
0.03
0.03
0.03
0.03
0.03
0.03
0.03
0.03
0.03
0.03
0.03
0.03
0.03
0.03
0.03
0.03
0.03
0.03
0.03
0.03
0.03
0.03
0.03
0.03
0.03
0.03
0.03
0.03
0.03
0.03
0.03
0.03
0.03
0.03
0.03
0.03
0.03
0.03
0.03
0.03
0.03
0.03
0.03
0.03
0.03
0.03
0.03
0.03
0.03
0.03
0.03
0.03
0.03
0.03
0.03
0.03
0.03
0.03
0.03
0.03
0.03
0.03
0.03
0.03
0.03
0.03
0.03
0.03
0.03
0.03
0.03
0.03
0.03
0.03
0.03
0.03
0.03
0.03
0.03
0.03
0.03
0.03
0.03
0.03
0.03
0.03
0.03
0.03
0.03
0.03
0.03
0.03
0.03
0.03
0.03
0.03
0.03
0.03
0.03
0.03
0.03
0.03
0.03
0.03
0.03
0.03
0.03
0.03
0.03
0.03
0.03
0.03
0.03
0.03
0.03
0.03
0.03
0.03
0.03
0.03
0.03
0.03
0.03
0.03
0.03
0.03
0.03
0.03
0.03
0.03
0.03
0.03
0.03
0.03
0.03
0.03
0.03
0.03
0.03
0.03
0.03
0.03
0.03
0.03
0.03
0.03
0.03
0.03
0.03
0.03
0.03
0.03
0.03
0.03
0.03
0.03
0.03
0.03
0.03
0.03
0.03
0.03
0.03
0.03
0.03
0.03
0.03
0.03
0.03
0.03
0.03
0.03
0.03
0.03
0.03
0.03
0.03
0.03
0.03
0.03
0.03
0.03
0.03
0.03
0.03
0.03
0.03
0.03
0.03
0.03
0.03
0.03
0.03
0.03
0.03
0.03
0.03
0.03
0.03
0.03
0.03
0.03
0.03
0.03
0.03
0.03
0.03
0.03
0.03
0.03
0.03
0.03
0.03
0.03
0.03
0.03
0.03
0.03
0.03
0.03
0.03
0.03
0.03
0.03
0.03
0.03
0.03
0.03
0.03
0.03
0.03
0.03
0.03
0.03
0.03
0.03
0.03
0.03
0.03
0.03
0.03
0.03
0.03
0.03
0.03
0.03
0.03
0.03
0.03
0.03
0.03
0.03
0.03
0.03
0.03
0.03
0.03
0.03
0.03
0.03
0.03
0.03
0.03
0.03
0.03
0.03
0.03
0.03
0.03
0.03
0.03
0.03
0.03
0.03
0.03
0.03
0.03
0.03
0.03
0.03
0.03
0.03
0.03
0.03
0.03
0.03
0.03
0.03
0.03
0.03
0.03
0.03
0.03
0.03
0.03
0.03
0.03
0.03
0.03
0.03
0.03
0.03
0.03
0.03
0.03
0.03
0.03
0.03
0.03
0.03
0.03
0.03
0.03
0.03
0.03
0.03
0.03
0.03
0.03
0.03
0.03
0.03
0.03
0.03
0.03
0.03
0.03
0.03
0.03
0.03
0.03
0.03
0.03
0.03
0.03
0.03
0.03
0.03
0.03
0.03
0.03
0.03
0.03
0.03
0.03
0.03
0.03
0.03
0.03
0.03
0.03
0.03
0.03
0.03
0.03
0.03
0.03
0.03
0.03
0.03
0.03
0.03
0.03
0.03
0.03
0.03
0.03
0.03
0.03
0.03
0.03
0.03
0.03
0.03
0.03
0.03
0.03
0.03
0.03
0.03
0.03
0.03
0.03
0.03
0.03
0.03
0.03
0.03
0.03
0.03
0.03
0.03
0.03
0.03
0.03
0.03
0.03
0.03
0.03
0.03
0.03
0.03
0.03
0.03
0.03
0.03
0.03
0.03
0.03
0.03
0.03
0.03
0.03
0.03
0.03
0.03
0.03
0.03
0.03
0.03
0.03
0.03
0.03
0.03
0.03
0.03
0.03
0.03
0.03
0.03
0.03
0.03
0.03
0.03
0.03
0.03
0.03
0.03
0.03
0.03
0.03
0.03
0.03
0.03
0.03
0.03
0.03
0.03
0.03
0.03
0.03
0.03
0.03
0.03
0.03
0.03
0.03
0.03
0.03
0.03
0.03
0.03
0.03
0.03
0.03
0.03
0.03
0.03
0.03
0.03
0.03
0.03
0.03
0.03
0.03
0.03
0.03
0.03
0.03
0.03
0.03
0.03
0.03
0.03
0.03
0.03
0.03
0.03
0.03
0.03
0.03
0.03
0.03
0.03
0.03
0.03
0.03
0.03
0.03
0.03
0.03
0.03
0.03
0.03
0.03
0.03
0.03
0.03
0.03
0.03
0.03
0.03
0.03
0.03
0.03
0.03
0.03
0.03
0.03
0.03
0.03
0.03
0.03
0.03
0.03
0.03
0.03
0.03
0.03
0.03
0.03
0.03
0.03
0.03
0.03
0.03
0.03
0.03
0.03
0.03
0.03
0.03
0.03
0.03
0.03
0.03
0.03
0.03
0.03
0.03
0.03
0.03
0.03
0.03
0.03
0.03
0.03
0.03
0.03
0.03
0.03
0.03
0.03
0.03
0.03
0.03
0.03
0.03
0.03
0.03
0.03
0.03
0.03
0.03
0.03
0.03
0.03
0.03

VECTORS velocity float
0.003093814942985773 -6.2698187828063965 -0.005093489307910204
3.191424411852495e-06 -6.314664363861084 0.0003906627534888685
-0.00030131946550682187 -6.312314033508301 -9.107182268053293e-05
-0.0011164442403241992 -6.408412456512451 -0.0009221166837960482
-0.0008355369209311903 -6.353407382965088 -0.0024375468492507935
-7.714988896623254e-05 -6.298755168914795 0.0002642636245582253
3.421646397328004e-05 -6.254162788391113 0.0002323794033145532
0.006386325228959322 -6.163578510284424 -0.013171745464205742
-0.01162119209766388 -6.142473220825195 0.01879745163023472
-8.809926657704636e-05 -6.314199447631836 -0.0002205964847235009
1.7330635273538064e-06 -6.310945987701416 -1.8214567489849287e-06
4.979026925866492e-05 -6.358900547027588 0.0017549677286297083
2.5706160158733837e-05 -6.330893516540527 6.931275856913999e-05
-8.973216608865187e-06 -6.314340591430664 0.00026702831382863224
-0.0033342784736305475 -6.372411727905273 0.0038679707795381546
0.0007851967820897698 -6.278158664703369 5.558428892982192e-05
0.0002846183779183775 -6.362604141235352 0.001487462897785008
0.0003222882223781198 -6.435312747955322 0.0018891467479988933
0.0008633779943920672 -6.342128276824951 -0.005494847893714905
-1.3599855265056249e-05 -6.261434078216553 6.129706889623776e-06
-0.004449273459613323 -6.3464460372924805 0.010722232982516289
-0.00011433471809141338 -6.261620998382568 -5.922054697293788e-05
0.005484425462782383 -6.245502471923828 0.000982607714831829
0.0006582613568753004 -6.345904350280762 -6.972842675168067e-05
-0.0006369600305333734 -6.349801540374756 -0.003722596447914839
-0.0011625259649008512 -6.2950263023376465 -0.005854485556483269
-0.0021907431073486805 -6.375740051269531 -0.0008326777606271207
7.0119526753842365e-06 -6.411945819854736 -9.972062798624393e-06
0.005803202744573355 -6.36473274230957 -0.0033765353728085756
0.001128947944380343 -6.405190467834473 0.005286469589918852
-0.0020672886166721582 -6.243136882781982 -0.0011181479785591364
-8.831101877149194e-05 -6.1705827713012695 -0.00036503668525256217
0.011996612884104252 -6.186502456665039 -5.632433749269694e-05
-8.180840814020485e-05 -6.210970878601074 -0.0009884227765724063
4.110500526621763e-07 -6.212438583374023 -6.721356476191431e-05
0.0005716122686862946 -6.21436071395874 0.001102974871173501
0.0006428177584894001 -6.135537147521973 0.00032929942244663835
8.775410242378712e-05 -6.235622882843018 0.00013426999794319272
0.00491472939029336 -6.208461284637451 0.0008271533297374845
7.42383926990442e-05 -6.198412895202637 -0.00021807012672070414
-9.687713463790715e-05 -6.088930606842041 0.0002861863176804036
-3.455200931057334e-05 -6.238464832305908 -0.00026424089446663857
0.006279483903199434 -6.338002681732178 0.008115457370877266
0.001262263278476894 -6.243312835693359 0.001106822513975203
-0.00035965992719866335 -6.173317909240723 0.00012358919775579125
0.00205553462728858 -6.254968166351318 0.001547430525533855
0.0014930011238902807 -6.148657321929932 -0.0021593186538666487
-3.0550032533938065e-05 -6.22982120513916 -3.335541987325996e-05
1.336537843599217e-05 -6.182061195373535 9.314828275819309e-06
0.0011445011477917433 -6.055543899536133 -0.0015729033621028066
-5.653526386595331e-05 -6.302508354187012 8.20394852780737e-05
0.00014277439913712442 -6.166144847869873 0.0005226754583418369
-0.001448710449039936 -6.060606479644775 -0.00036994280526414514
-0.00466144597157836 -6.140652179718018 -0.0059247612953186035
-8.45264657982625e-05 -6.172070026397705 0.00029607804026454687
0.0006283818511292338 -6.1078715324401855 -0.0008158387499861419
-0.00011503158020786941 -6.13532829284668 4.5614619011757895e-05
0.00010648123134160414 -6.261475563049316 -0.00011844970867969096
8.365515532204881e-05 -6.173407554626465 -6.902360473759472e-05
-1.891238207463175e-05 -6.200756072998047 0.0019433500710874796
0.0002803151437547058 -6.13894510269165 0.005270857363939285
-0.0007404423668049276 -5.936258316040039 -2.6937406801152974e-05
8.677478035679087e-05 -6.097194194793701 -9.441821930522565e-06
0.00038846765528433025 -6.013392448425293 5.131998113938607e-05
0.00019893124408554286 -6.057094097137451 -0.0001634855434531346
-5.6126027629943565e-05 -5.855103015899658 -0.00024397960805799812
4.73510917800013e-05 -6.013679027557373 -6.195178139023483e-05
0.003656015731394291 -6.055046081542969 -0.008314806967973709
-6.149183718662243e-06 -5.957160472869873 3.61291768058436e-07
-0.006800482049584389 -6.054598331451416 0.013513854704797268
-8.117734250845388e-05 -6.019819259643555 0.00022020431060809642
1.0610223171170219e-06 -6.026754856109619 -4.5229867851048766e-07
2.3570412395201856e-06 -5.995976448059082 3.855925751850009e-05
1.4895975255058147e-05 -6.078831195831299 -2.08476121770218e-05
0.0011283402564004064 -6.228276252746582 0.0005984212621115148
4.978350625606254e-05 -5.97464656829834 -0.0003599206102080643
-4.062017615069635e-05 -6.070862293243408 -0.00024500678409822285
-2.4851651687640697e-05 -6.104670524597168 6.9408692070283e-05
-6.954595392016927e-06 -5.886194705963135 -7.389606616925448e-05
0.0023057369980961084 -5.765216827392578 0.002438877010717988
-0.002223928226158023 -6.091251850128174 -0.002011264441534877
-1.2350958513707155e-06 -6.0168023109436035 -1.951276544787106e-06
-0.00014407426351681352 -6.071962833404541 -0.0002896588994190097
-0.0005126275937072933 -6.054696559906006 0.0009854426607489586
-0.00025161393568851054 -6.022538661956787 -0.0015238034538924694
-3.3217278541997075e-05 -6.141233444213867 -4.426244049682282e-05
-0.005921634845435619 -6.1239013671875 -0.0003218561178073287
-0.0015991469845175743 -6.202200889587402 -0.01051419135183096
0.000981832854449749 -6.117097854614258 0.0006868054624646902
7.483276567654684e-05 -6.022075176239014 -2.482125819369685e-05
7.668835314689204e-05 -6.080806255340576 0.00015922212332952768
6.566038791788742e-06 -5.957809925079346 -0.00016626757860649377
-0.0034674752969294786 -5.802020072937012 0.0032808142714202404
-7.404423377010971e-05 -5.852286338806152 -2.2110225472715683e-05
0.002183909760788083 -5.93956184387207 -0.003896037582308054
0.0003392140497453511 -5.938351154327393 -0.0003865987528115511
0.004395951516926289 -5.896979331970215 -0.00033909347257576883
0.00035848235711455345 -5.895326614379883 -0.0014787743566557765
-0.0027309395372867584 -6.059646129608154 0.003232152434065938
-0.0010871475096791983 -6.002552032470703 -0.0027836624067276716
1.2112330296076834e-05 -5.963444232940674 4.59617751857877e-07
-0.007087374571710825 -5.90671968460083 -0.006074547301977873
-0.0002518653927836567 -5.921360492706299 0.00029299507150426507
0.03492319956421852 -5.939289093017578 -0.02250315435230732
-1.9843441805278417e-06 -5.839687824249268 3.919177106581628e-05
0.002148132072761655 -5.939706802368164 0.0004407021915540099
1.3870682096239761e-06 -5.835160255432129 6.613358436879935e-06
5.153259508006158e-07 -5.861710071563721 -1.4193222341418732e-05
0.006255345419049263 -5.999494552612305 -0.010017053224146366
5.644982593366876e-05 -5.973733901977539 -4.8849837185116485e-05
-5.483446511789225e-05 -5.882894992828369 -0.0001161417894763872
-6.864646366011584e-06 -5.875848293304443 2.0207857232890092e-05
8.246041943493765e-06 -5.91464376449585 -1.7575042647877126e-06
-4.4537642679642886e-05 -5.764492988586426 0.0003107058582827449
-0.00048156737466342747 -5.7194647789001465 0.00021145959908608347
-4.406602784001734e-06 -5.982487201690674 2.5587723939679563e-06
-2.412111462035682e-05 -5.906138896942139 9.769324606168084e-06
-5.292080095387064e-05 -5.871490955352783 -6.342599226627499e-05
0.0005598767311312258 -5.654242992401123 0.0013728878693655133
0.0006683152168989182 -5.835194110870361 -0.000475551001727581
0.0002687914820853621 -5.833249092102051 0.0010123207466676831
-0.00995983649045229 -5.876698017120361 -0.015816595405340195
0.00017306658264715225 -5.667568683624268 -0.0001232081704074517
-1.7810367353376932e-05 -5.734059810638428 -0.00013932430010754615
-2.434218231428531e-06 -5.631259441375732 -3.6932362945663044e-06
-0.0008668839000165462 -5.702657222747803 -0.0006240176735445857
0.003716460196301341 -5.584385395050049 0.014917845837771893
0.0036938018165528774 -5.648306846618652 -0.0003090158279519528
-0.00013674123329110444 -5.877438545227051 0.00037152948789298534
-7.402142364298925e-05 -5.812451362609863 -1.571753637108486e-05
0.0018041699659079313 -5.823016166687012 -0.00037702699773944914
0.0012758077355101705 -5.954160690307617 0.0013877644669264555
-7.469625415978953e-06 -5.744146347045898 2.4847724944265792e-06
-0.003030494088307023 -5.652784824371338 0.007607427891343832
5.663715273840353e-05 -5.811654090881348 -7.296885451069102e-05
0.001551597029902041 -5.5263447761535645 0.002313160803169012
0.015643125399947166 -5.755389213562012 0.009149066172540188
0.0002114421658916399 -5.742938041687012 3.731417382368818e-05
0.0005624567857012153 -5.691302299499512 0.0004553435428533703
-0.0018675198080018163 -5.799826145172119 0.0002199863811256364
-0.001759620034135878 -5.752001762390137 -0.0011881876271218061
1.0087488590215798e-05 -5.7263360023498535 5.544661689782515e-05
-6.3007964854477905e-06 -5.741971969604492 -5.613220764644211e-06
1.58769926201785e-05 -5.892935752868652 -0.0002845832786988467
-7.260163783939788e-06 -5.727365970611572 5.501106556948798e-07
-2.8435824788175523e-06 -5.810259819030762 -7.036492206680123e-07
-0.0009325136779807508 -5.7539143562316895 0.0012996048899367452
0.002590946853160858 -5.957207202911377 -0.004629756789654493
-2.1006748283980414e-05 -5.878511905670166 7.339959665841889e-06
-9.91657634585863e-06 -5.696762561798096 -2.1373791696532862e-06
-2.006131126108812e-06 -5.787682056427002 -9.345927765025408e-07
0.008942786604166031 -5.732981204986572 0.01410311833024025
2.1729219952248968e-05 -5.6996893882751465 2.160694930353202e-05
-8.440802957920823e-06 -5.64024543762207 4.195029760012403e-05
2.028530252573546e-05 -5.652219295501709 -5.208525180933066e-06
-2.1326644855435006e-05 -5.634651184082031 -0.00014222633035387844
0.0006705231498926878 -5.713291168212891 8.660481398692355e-05
-3.106865915469825e-05 -5.571538925170898 0.0016079941997304559
0.0021271274890750647 -5.6126790046691895 0.0006963052437640727
0.00040882156463339925 -5.594671726226807 -0.000593093631323427
-2.048386477326858e-06 -5.573596000671387 3.118434221960342e-08
7.3435689955658745e-06 -5.612603664398193 -4.959267130288936e-07
0.0005482825799845159 -5.63718318939209 0.0006286126445047557
-0.0002548965276218951 -5.583047389984131 0.0003545897197909653
-0.0001688730699243024 -5.522350311279297 0.00027960934676229954
-0.004145768936723471 -5.9430646896362305 0.011219348758459091
0.001493333838880062 -4.945765495300293 0.001700650667771697
0.0014100493863224983 -5.604208946228027 0.0005509579204954207
-0.0013911989517509937 -5.762135028839111 -0.002838142914697528
0.0006132669514045119 -5.804222106933594 -0.0010499452473595738
4.735164111480117e-05 -5.669336318969727 4.4820273615187034e-05
-0.0005549333873204887 -5.603216648101807 -0.0003465726040303707
7.79164329287596e-05 -5.621349811553955 8.321876521222293e-05
-0.0007036715396679938 -5.574468612670898 -0.00038027975824661553
-1.7826390831032768e-05 -5.611687660217285 -8.042434637900442e-05
0.0007976211491040885 -5.678259372711182 -0.00026735864230431616
0.0003785205481108278 -5.605276584625244 0.0003645045799203217
0.0059457868337631226 -5.6629133224487305 -0.004453685600310564
-0.00015379581600427628 -5.512516021728516 -0.0004798157897312194
-0.0004238462424837053 -5.787227630615234 -0.0012736357748508453
-0.0028345317114144564 -5.61052942276001 -0.0024981042370200157
-0.0021070230286568403 -5.832736015319824 -0.0002759902272373438
-0.00012678929488174617 -5.548710346221924 -4.2558094719424844e-05
0.0008529239566996694 -5.606278896331787 0.001004813238978386
3.6721237847814336e-05 -5.309098720550537 -6.560519068443682e-06
-0.00017050429596565664 -5.3832197189331055 -2.7072399461758323e-05
-4.3338768591638654e-05 -5.365047931671143 -6.697059143334627e-05
0.004996607080101967 -5.440255641937256 -0.0007984491530805826
0.00014823909441474825 -5.485954761505127 0.0006100400350987911
-4.2122806576117e-07 -5.458550930023193 5.1867096772184595e-05
0.00032290315721184015 -5.348734378814697 -0.0025263342540711164
-2.077098088193452e-06 -5.508264064788818 5.091067578177899e-06
-3.971417299908353e-06 -5.367856502532959 -4.963770606991602e-06
-0.00015375990187749267 -5.485033988952637 -0.0001153775883722119
-0.0006578610627911985 -5.4477057456970215 0.0016445469809696078
-1.0908845069934614e-05 -5.519878387451172 -9.862965089268982e-05
-5.2271029744588304e-06 -5.27234411239624 -1.6771792843428557e-06
1.9985051039839163e-05 -5.429568767547607 -1.2484290891734418e-05
0.0005634025437757373 -5.551470756530762 0.000335308926878497
-0.0006701437523588538 -5.4827704429626465 0.0027418683748692274
2.484866854501888e-06 -5.501574993133545 1.346926410406013e-06
-1.0154903065995313e-05 -5.431833744049072 0.0012629328994080424
0.0007591852336190641 -5.417450428009033 0.0006124572246335447
-0.0008407289278693497 -5.474115371704102 0.002378992736339569
-4.304227695683949e-05 -5.492838382720947 -8.884807175491005e-05
-0.00029449621797539294 -5.545894145965576 0.0001744477922329679
0.005175854545086622 -5.305870532989502 0.007466007024049759
-0.0001028984843287617 -5.523384094238281 -0.00020022275566589087
0.00017050610040314496 -5.497043609619141 9.354027861263603e-05
1.2351211807981599e-05 -5.5443525314331055 2.4939961804193445e-05
-0.00033845071448013186 -5.393466949462891 -0.00024215184384956956
1.7206375559908338e-05 -5.405833721160889 6.547781958943233e-05
6.143850896478398e-06 -5.591681480407715 -2.277485918966704e-06
-0.0006241105729714036 -5.5365166664123535 0.0005872993497177958
-0.00017745884542819113 -5.171700477600098 0.00022599475050810724
0.0007445606752298772 -5.403048038482666 -0.00043381049181334674
0.003941121511161327 -5.180837631225586 0.0008630802039988339
-7.883143553044647e-06 -5.221945285797119 -1.6044898529798957e-06
0.0010838444577530026 -5.309411525726318 -0.0013574861222878098
-4.370008537080139e-05 -5.235698699951172 -9.511957614449784e-05
0.00017372830188833177 -5.40887451171875 -0.0002855442580766976
0.004868366755545139 -5.228703022003174 -0.0050403159111738205