# vtk DataFile Version 3.0
MPM particles frame 4
ASCII
DATASET UNSTRUCTURED_GRID

POINTS 1504 float
18.369789123535156 22.868257522583008 1.1732022762298584
18.287931442260742 22.820011138916016 0.9295173287391663
18.025959014892578 22.78801727294922 0.8180475831031799
18.25564956665039 22.753501892089844 0.3394096791744232
18.1741943359375 22.754295349121094 0.23035432398319244
18.68861961364746 22.803882598876953 1.0686017274856567
18.213701248168945 22.8448543548584 0.5266721844673157
18.41202163696289 22.889535903930664 1.2337048053741455
19.0289249420166 22.92411994934082 0.5831437110900879
17.893770217895508 22.7978572845459 0.9144877791404724
18.194976806640625 22.79071617126465 1.0384719371795654
18.057079315185547 22.749309539794922 0.29572317004203796
17.96071434020996 22.78363609313965 0.6556126475334167
18.898771286010742 22.762727737426758 0.7594183087348938
18.095226287841797 22.740285873413086 0.39710626006126404
17.930213928222656 22.829978942871094 1.0888546705245972
18.85895538330078 22.76481056213379 0.5726516246795654
18.23143196105957 22.722976684570312 0.29833969473838806
18.308828353881836 22.78474998474121 1.2095496654510498
18.944198608398438 22.810651779174805 0.4125309884548187
18.48758316040039 22.793100357055664 0.22608299553394318
17.911914825439453 22.873485565185547 0.867899477481842
18.157962799072266 22.833627700805664 0.8268054723739624
17.7762508392334 22.752389907836914 0.836358368396759
18.042186737060547 22.773784637451172 0.3429056704044342
18.889141082763672 22.80337142944336 0.8644192814826965
18.052690505981445 22.74833106994629 0.5502455234527588
17.919057846069336 22.74570655822754 0.4069138169288635
18.19226837158203 22.77259635925293 0.3658135235309601
18.8935546875 22.736600875854492 0.9151234030723572
18.13567543029785 22.836688995361328 0.4948558211326599
18.772048950195312 22.90696144104004 0.6342207789421082
18.196331024169922 22.889713287353516 0.17992006242275238
18.9084529876709 22.880277633666992 0.5591008067131042
18.05945587158203 22.888721466064453 1.057655692100525
18.44919776916504 22.86756706237793 0.08287158608436584
18.31488037109375 22.93685531616211 1.0299532413482666
18.08867835998535 22.864503860473633 1.1636855602264404
18.512760162353516 22.898696899414062 0.2962128818035126
18.26435089111328 22.906158447265625 0.7534480094909668
17.899734497070312 22.930788040161133 0.3833215534687042
17.94796371459961 22.846439361572266 0.753921627998352
18.51396942138672 22.842992782592773 0.9492059946060181
18.175525665283203 22.90018081665039 0.5077759623527527
18.59971046447754 22.887006759643555 0.740012526512146
18.155315399169922 22.9003963470459 0.5020434260368347
18.63519287109375 22.924774169921875 0.14559891819953918
18.390018463134766 22.891164779663086 0.7463493943214417
18.558984756469727 22.871694564819336 0.487520694732666
18.83829116821289 22.998857498168945 1.1482925415039062
18.030006408691406 22.844446182250977 1.1668038368225098
18.24123191833496 22.919296264648438 0.25683489441871643
18.675323486328125 22.969728469848633 0.8272657990455627
18.536893844604492 22.90743637084961 0.9553680419921875
17.898441314697266 22.88787078857422 1.1393513679504395
18.593338012695312 22.977895736694336 0.2352668195962906
18.274320602416992 22.934066772460938 1.327965259552002
18.508817672729492 22.875085830688477 1.0511013269424438
18.742992401123047 22.908790588378906 0.3877582252025604
18.298343658447266 22.87287712097168 1.2284152507781982
18.818166732788086 22.95136260986328 1.1781595945358276
18.557119369506836 23.10932731628418 0.8968169093132019
17.969114303588867 22.967477798461914 0.38724833726882935
17.90652084350586 22.986793518066406 0.8485255837440491
18.64828872680664 23.03731346130371 0.37967362999916077
18.814491271972656 23.140226364135742 0.47661077976226807
18.785001754760742 23.0492000579834 0.30230551958084106
17.88905906677246 23.091670989990234 1.0131323337554932
18.456329345703125 23.04140853881836 1.385166883468628
18.159221649169922 23.005373001098633 0.12231974303722382
18.296396255493164 23.005966186523438 0.898329496383667
18.589738845825195 22.994678497314453 0.5967498421669006
18.764692306518555 23.047590255737305 0.42831388115882874
18.829627990722656 23.01372718811035 0.3056379556655884
18.145065307617188 22.88826560974121 0.49152278900146484
18.240489959716797 23.062959671020508 1.1610888242721558
18.930665969848633 23.009794235229492 0.5139950513839722
18.651447296142578 22.95486831665039 1.108404278755188
17.929643630981445 22.99920654296875 0.5777727365493774
17.866308212280273 23.208045959472656 0.41947653889656067
18.51862144470215 23.005306243896484 0.9032499194145203
18.87085723876953 23.058387756347656 0.2969970107078552
18.727378845214844 22.98496437072754 1.1889528036117554
18.426145553588867 22.96747398376465 1.151426911354065
18.99933624267578 23.037925720214844 1.1041935682296753
18.696300506591797 22.97471809387207 1.132818579673767
18.153797149658203 22.9381160736084 0.8520522713661194
18.490036010742188 22.890579223632812 0.27245765924453735
17.94599151611328 22.953733444213867 0.27188530564308167
18.704038619995117 23.035324096679688 0.2359747439622879
18.72972297668457 22.972639083862305 1.08295738697052
18.958723068237305 23.067468643188477 0.5069840550422668
18.58022117614746 23.174787521362305 1.2976155281066895
18.3179874420166 23.139928817749023 0.1540420651435852
19.005897521972656 23.097978591918945 0.6014241576194763
18.46834945678711 23.09136390686035 0.3907550871372223
18.69010353088379 23.136043548583984 1.2679587602615356
18.566865921020508 23.07448959350586 0.24218758940696716
18.315494537353516 23.022268295288086 1.1704460382461548
18.795642852783203 23.056190490722656 1.135068416595459
18.987646102905273 23.062183380126953 0.38246050477027893
17.839454650878906 23.134511947631836 0.9458849430084229
18.622638702392578 23.111873626708984 0.36343175172805786
17.91091537475586 23.066713333129883 1.1404324769973755
18.295137405395508 23.166805267333984 1.0481622219085693
18.572317123413086 23.086652755737305 0.8614477515220642
18.870285034179688 23.142995834350586 0.25819024443626404
18.577720642089844 23.132944107055664 1.1557918787002563
19.0737361907959 23.03914451599121 0.5508467555046082
18.700904846191406 23.07550811767578 0.34233856201171875
18.483369827270508 23.147733688354492 0.7875139117240906
18.005416870117188 23.157331466674805 0.36133667826652527
18.05472755432129 23.121713638305664 0.32321199774742126
18.921213150024414 23.2442569732666 0.9789432287216187
18.42641830444336 23.217241287231445 0.4813648760318756
17.986682891845703 23.10171890258789 0.3448890745639801
18.148160934448242 23.12991714477539 0.7737140655517578
18.7744140625 23.153358459472656 0.9634602665901184
17.792465209960938 23.28760528564453 0.5959142446517944
19.04583168029785 23.18852996826172 0.5991038680076599
18.280418395996094 23.176977157592773 0.07118602842092514
18.496458053588867 23.145545959472656 0.6187740564346313
18.735122680664062 23.268245697021484 0.5319802761077881
18.561058044433594 23.239830017089844 0.9777308106422424
18.44198989868164 23.286802291870117 0.7868675589561462
18.106407165527344 23.263450622558594 1.290632724761963
17.883081436157227 23.31045150756836 1.0445624589920044
18.48308753967285 23.315275192260742 1.4323524236679077
18.660594940185547 23.156787872314453 0.28500068187713623
18.723857879638672 23.202072143554688 0.7743537425994873
18.881174087524414 23.17794418334961 0.8302310109138489
18.296710968017578 23.084850311279297 1.235054850578308
18.105688095092773 23.238977432250977 0.840860903263092
18.42765998840332 23.294815063476562 1.2157504558563232
18.15152931213379 23.218233108520508 1.239617109298706
17.845932006835938 23.39859390258789 1.136439561843872
17.7730770111084 23.248823165893555 0.5132735967636108
18.007732391357422 23.22857666015625 0.8498129844665527
18.59705352783203 23.272144317626953 0.924434244632721
18.875133514404297 23.217117309570312 0.8046005368232727
18.223140716552734 23.19533348083496 1.2960509061813354
18.327957153320312 23.23586082458496 0.5991990566253662
18.088760375976562 23.24335479736328 0.7966870069503784
18.20124053955078 23.144474029541016 0.5123063921928406
18.590505599975586 23.230022430419922 0.6296981573104858
18.089574813842773 23.192642211914062 0.21077986061573029
18.615144729614258 23.233251571655273 0.10146500915288925
19.009092330932617 23.09638214111328 0.5930319428443909
18.855422973632812 23.156023025512695 0.3209540545940399
18.392488479614258 23.28090476989746 0.09868374466896057
18.14682960510254 23.20644187927246 0.9931491017341614
18.441728591918945 23.242576599121094 0.6814893484115601
18.755704879760742 23.255008697509766 0.7544231414794922
18.005897521972656 23.302032470703125 0.40940481424331665
18.362285614013672 23.306610107421875 0.9318154454231262
18.17212677001953 23.316394805908203 0.277798593044281
17.960708618164062 23.27626609802246 0.8326004147529602
18.956716537475586 23.377256393432617 1.0099287033081055
18.502561569213867 23.36637306213379 0.5624260902404785
18.213396072387695 23.34463119506836 0.745074987411499
18.386600494384766 23.387929916381836 0.14126268029212952
18.921720504760742 23.349294662475586 0.35857632756233215
18.07664680480957 23.339054107666016 0.6161276698112488
19.03824806213379 23.352123260498047 0.5464857220649719
18.72726821899414 23.38943099975586 0.15340951085090637
18.407350540161133 23.10622787475586 1.224434494972229
17.855892181396484 23.810380935668945 1.112987995147705
17.930164337158203 23.359106063842773 0.835069477558136
18.597919464111328 23.251922607421875 1.2880916595458984
19.042652130126953 23.228538513183594 0.538307785987854
18.865049362182617 23.309293746948242 1.1392284631729126
18.051105499267578 23.355810165405273 0.5666303634643555
18.594451904296875 23.331972122192383 0.29238656163215637
18.56391143798828 23.348600387573242 0.8193240165710449
18.102558135986328 23.328624725341797 1.1249860525131226
[...]
POINT_DATA 1504
SCALARS radius float 1
LOOKUP_TABLE default
0.03
0.03
0.03
0.03
0.03
0.03
0.03
0.03
0.03
0.03
0.03
0.03
0.03
0.03
0.03
0.03
0.03
0.03
0.03
0.03
0.03
0.03
0.03
0.03
0.03
0.03
0.03
0.03
0.03
0.03
0.03
0.03
0.03
0.03
0.03
0.03
0.03
0.03
0.03
0.03
0.03
0.03
0.03
0.03
0.03
0.03
0.03
0.03
0.03
0.03
0.03
0.03
0.03
0.03
0.03
0.03
0.03
0.03
0.03
0.03
0.03
0.03
0.03
0.03
0.03
0.03
0.03
0.03
0.03
0.03
0.03
0.03
0.03
0.03
0.03
0.03
0.03
0.03
0.03
0.03
0.03
0.03
0.03
0.03
0.03
0.03
0.03
0.03
0.03
0.03
0.03
0.03
0.03
0.03
0.03
0.03
0.03
0.03
0.03
0.03
0.03
0.03
0.03
0.03
0.03
0.03
0.03
0.03
0.03
0.03
0.03
0.03
0.03
0.03
0.03
0.03
0.03
0.03
0.03
0.03
0.03
0.03
0.03
0.03
0.03
0.03
0.03
0.03
0.03
0.03
0.03
0.03
0.03
0.03
0.03
0.03
0.03
0.03
0.03
0.03
0.03
0.03
0.03
0.03
0.03
0.03
0.03
0.03
0.03
0.03
0.03
0.03
0.03
0.03
0.03
0.03
0.03
0.03
0.03
0.03
0.03
0.03
0.03
0.03
0.03
0.03
0.03
0.03
0.03
0.03
0.03
0.03
0.03
0.03
0.03
0.03
0.03
0.03
0.03
0.03
0.03
0.03
0.03
0.03
0.03
0.03
0.03
0.03
0.03
0.03
0.03
0.03
0.03
0.03
0.03
0.03
0.03
0.03
0.03
0.03
0.03
0.03
0.03
0.03
0.03
0.03
0.03
0.03
0.03
0.03
0.03
0.03
0.03
0.03
0.03
0.03
0.03
0.03
0.03
0.03
0.03
0.03
0.03
0.03
0.03
0.03
0.03
0.03
0.03
0.03
0.03
0.03
0.03
0.03
0.03
0.03
0.03
0.03
0.03
0.03
0.03
0.03
0.03
0.03
0.03
0.03
0.03
0.03
0.03
0.03
0.03
0.03
0.03
0.03
0.03
0.03
0.03
0.03
0.03
0.03
0.03
0.03
0.03
0.03
0.03
0.03
0.03
0.03
0.03
0.03
0.03
0.03
0.03
0.03
0.03
0.03
0.03
0.03
0.03
0.03
0.03
0.03
0.03
0.03
0.03
0.03
0.03
0.03
0.03
0.03
0.03
0.03
0.03
0.03
0.03
0.03
0.03
0.03
0.03
0.03
0.03
0.03
0.03
0.03
0.03
0.03
0.03
0.03
0.03
0.03
0.03
0.03
0.03
0.03
0.03
0.03
0.03
0.03
0.03
0.03
0.03
0.03
0.03
0.03
0.03
0.03
0.03
0.03
0.03
0.03
0.03
0.03
0.03
0.03
0.03
0.03
0.03
0.03
0.03
0.03
0.03
0.03
0.03
0.03
0.03
0.03
0.03
0.03
0.03
0.03
0.03
0.03
0.03
0.03
0.03
0.03
0.03
0.03
0.03
0.03
0.03
0.03
0.03
0.03
0.03
0.03
0.03
0.03
0.03
0.03
0.03
0.03
0.03
0.03
0.03
0.03
0.03
0.03
0.03
0.03
0.03
0.03
0.03
0.03
0.03
0.03
0.03
0.03
0.03
0.03
0.03
0.03
0.03
0.03
0.03
0.03
0.03
0.03
0.03
0.03
0.03
0.03
0.03
0.03
0.03
0.03
0.03
0.03
0.03
0.03
0.03
0.03
0.03
0.03
0.03
0.03
0.03
0.03
0.03
0.03
0.03
0.03
0.03
0.03
0.03
0.03
0.03
0.03
0.03
0.03
0.03
0.03
0.03
0.03
0.03
0.03
0.03
0.03
0.03
0.03
0.03
0.03
0.03
0.03
0.03
0.03
0.03
0.03
0.03
0.03
0.03
0.03
0.03
0.03
0.03
0.03
0.03
0.03
0.03
0.03
0.03
0.03
0.03
0.03
0.03
0.03
0.03
0.03
0.03
0.03
0.03
0.03
0.03
0.03
0.03
0.03
0.03
0.03
0.03
0.03
0.03
0.03
0.03
0.03
0.03
0.03
0.03
0.03
0.03
0.03
0.03
0.03
0.03
0.03
0.03
0.03
0.03
0.03
0.03
0.03
0.03
0.03
0.03
0.03
0.03
0.03
0.03
0.03
0.03
0.03
0.03
0.03
0.03
0.03
0.03
0.03
0.03
0.03
0.03
0.03
0.03
0.03
0.03
0.03
0.03
0.03
0.03
0.03
0.03
0.03
0.03
0.03
0.03
0.03
0.03
0.03
0.03
0.03
0.03
0.03
0.03
0.03
0.03
0.03
0.03
0.03
0.03
0.03
0.03
0.03
0.03
0.03
0.03
0.03
0.03
0.03
0.03
0.03
0.03
0.03
0.03
0.03
0.03
0.03
0.03
0.03
0.03
0.03
0.03
0.03
0.03
0.03
0.03
0.03
0.03
0.03
0.03
0.03
0.03
0.03
0.03
0.03
0.03
0.03
0.03
0.03
0.03
0.03
0.03
0.03
0.03
0.03
0.03
0.03
0.03
0.03
0.03
0.03
0.03
0.03
0.03
0.03
0.03
0.03
0.03
0.03
0.03
0.03
0.03
0.03
0.03
0.03
0.03
0.03
0.03
0.03
0.03
0.03
0.03
0.03
0.03
0.03
0.03
0.03
0.03
0.03
0.03
0.03
0.03
0.03
0.03
0.03
0.03
0.03
0.03
0.03
0.03
0.03
0.03
0.03
0.03
0.03
0.03
0.03
0.03
0.03
0.03
0.03
0.03
0.03
0.03
0.03
0.03
0.03
0.03
0.03
0.03
0.03
0.03
0.03
0.03
0.03
0.03
0.03
0.03
0.03
0.03
0.03
0.03
0.03
0.03
0.03
0.03
0.03
0.03
0.03
0.03
0.03
0.03
0.03
0.03
0.03
0.03
0.03
0.03
0.03
0.03
0.03
0.03
0.03
0.03
0.03
0.03
0.03
0.03
0.03
0.03
0.03
0.03
0.03
0.03
0.03
0.03
0.03
0.03
0.03
0.03
0.03
0.03
0.03
0.03
0.03
0.03
0.03
0.03
0.03
0.03
0.03
0.03
0.03
0.03
0.03
0.03
0.03
0.03
0.03
0.03
0.03
0.03
0.03
0.03
0.03
0.03
0.03
0.03
0.03
0.03
0.03
0.03
0.03
0.03
0.03
0.03
0.03
0.03
0.03
0.03
0.03
0.03
0.03
0.03
0.03
0.03
0.03
0.03
0.03
0.03
0.03
0.03
0.03
0.03
0.03
0.03
0.03
0.03
0.03
0.03
0.03
0.03
0.03
0.03
0.03
0.03
0.03
0.03
0.03
0.03
0.03
0.03
0.03
0.03
0.03
0.03
0.03
0.03
0.03
0.03
0.03
0.03
0.03
0.03
0.03
0.03
0.03
0.03
0.03
0.03
0.03
0.03
0.03
0.03
0.03
0.03
0.03
0.03
0.03
0.03
0.03
0.03
0.03
0.03
0.03
0.03
0.03
0.03
0.03
0.03
0.03
0.03
0.03
0.03
0.03
0.03
0.03
0.03
0.03
0.03
0.03
0.03
0.03
0.03
0.03
0.03
0.03
0.03
0.03
0.03
0.03
0.03
0.03
0.03
0.03
0.03
0.03
0.03
0.03
0.03
0.03
0.03
0.03
0.03
0.03
0.03
0.03
0.03
0.03
0.03
0.03
0.03
0.03
0.03
0.03
0.03
0.03
0.03
0.03
0.03
0.03
0.03
0.03
0.03
0.03
0.03
0.03
0.03
0.03
0.03
0.03
0.03
0.03
0.03
0.03
0.03
0.03
0.03
0.03
0.03
0.03
0.03
0.03
0.03
0.03
0.03
0.03
0.03
0.03
0.03
0.03
0.03
0.03
0.03
0.03
0.03
0.03
0.03
0.03
0.03
0.03
0.03
0.03
0.03
0.03
0.03
0.03
0.03
0.03
0.03
0.03
0.03
0.03
0.03
0.03
0.03
0.03
0.03
0.03
0.03
0.03
0.03
0.03
0.03
0.03
0.03
0.03
0.03
0.03
0.03
0.03
0.03
0.03
0.03
0.03
0.03
0.03
0.03
0.03
0.03
0.03
0.03
0.03
0.03
0.03
0.03
0.03
0.03
0.03
0.03
0.03
0.03
0.03
0.03
0.03
0.03
0.03
0.03
0.03
0.03
0.03
0.03
0.03
0.03
0.03
0.03
0.03
0.03
0.03
0.03
0.03
0.03
0.03
0.03
0.03
0.03
0.03
0.03
0.03
0.03
0.03
0.03
0.03
0.03
0.03
0.03
0.03
0.03
0.03
0.03
0.03
0.03
0.03
0.03
0.03
0.03
0.03
0.03
0.03
0.03
0.03
0.03
0.03
0.03
0.03
0.03
0.03
0.03
0.03
0.03
0.03
0.03
0.03
0.03
0.03
0.03
0.03
0.03
0.03
0.03
0.03
0.03
0.03
0.03
0.03
0.03
0.03
0.03
0.03
0.03
0.03
0.03
0.03
0.03
0.03
0.03
0.03
0.03
0.03
0.03
0.03
0.03
0.03
0.03
0.03
0.03
0.03
0.03
0.03
0.03
0.03
0.03
0.03
0.03
0.03
0.03
0.03
0.03
0.03
0.03
0.03
0.03
0.03
0.03
0.03
0.03
0.03
0.03
0.03
0.03
0.03
0.03
0.03
0.03
0.03
0.03
0.03
0.03
0.03
0.03
0.03
0.03
0.03
0.03
0.03
0.03
0.03
0.03
0.03
0.03
0.03
0.03
0.03
0.03
0.03
0.03
0.03
0.03
0.03
0.03
0.03
0.03
0.03
0.03
0.03
0.03
0.03
0.03
0.03
0.03
0.03
0.03
0.03
0.03
0.03
0.03
0.03
0.03
0.03
0.03
0.03
0.03
0.03
0.03
0.03
0.03
0.03
0.03
0.03
0.03
0.03
0.03
0.03
0.03
0.03
0.03
0.03
0.03
0.03
0.03
0.03
0.03
0.03
0.03
0.03
0.03
0.03
0.03
0.03
0.03
0.03
0.03
0.03
0.03
0.03
0.03
0.03
0.03
0.03
0.03
0.03
0.03
0.03
0.03
0.03
0.03
0.03
0.03
0.03
0.03
0.03
0.03
0.03
0.03
0.03
0.03
0.03
0.03
0.03
0.03
0.03
0.03
0.03
0.03
0.03
0.03
0.03
0.03
0.03
0.03
0.03
0.03
0.03
0.03
0.03
0.03
0.03
0.03
0.03
0.03
0.03
0.03
0.03
0.03
0.03
0.03
0.03
0.03
0.03
0.03
0.03
0.03
0.03
0.03
0.03
0.03
0.03
0.03
0.03
0.03
0.03
0.03
0.03
0.03
0.03
0.03
0.03
0.03
0.03
0.03
0.03
0.03
0.03
0.03
0.03
0.03
0.03
0.03
0.03
0.03
0.03
0.03
0.03
0.03
0.03
0.03
0.03
0.03
0.03
0.03
0.03
0.03
0.03
0.03
0.03
0.03
0.03
0.03
0.03
0.03
0.03
0.03
0.03
0.03
0.03
0.03
0.03
0.03
0.03
0.03
0.03
0.03
0.03
0.03
0.03
0.03
0.03
0.03
0.03
0.03
0.03
0.03
0.03
0.03
0.03
0.03
0.03
0.03
0.03
0.03
0.03
0.03
0.03
0.03
0.03
0.03
0.03
0.03
0.03
0.03
0.03
0.03
0.03
0.03
0.03
0.03
0.03
0.03
0.03
0.03
0.03
0.03
0.03
0.03
0.03
0.03
0.03
0.03
0.03
0.03
0.03
0.03
0.03
0.03
0.03
0.03
0.03
0.03
0.03
0.03
0.03
0.03
0.03
0.03
0.03
0.03
0.03
0.03
0.03
0.03
0.03
0.03
0.03
0.03
0.03
0.03
0.03
0.03
0.03
0.03
0.03
0.03
0.03
0.03
0.03
0.03
0.03
0.03
0.03
0.03
0.03
0.03
0.03
0.03
0.03
0.03
0.03
0.03
0.03
0.03
0.03
0.03
0.03
0.03
0.03
0.03
0.03
0.03
0.03
0.03
0.03
0.03
0.03
0.03
0.03
0.03
0.03
0.03
0.03
0.03
0.03
0.03
0.03
0.03
0.03
0.03
0.03
0.03
0.03
0.03
0.03
0.03
0.03
0.03
0.03
0.03
0.03
0.03
0.03
0.03
0.03
0.03
0.03
0.03
0.03
0.03
0.03
0.03
0.03
0.03
0.03
0.03
0.03
0.03
0.03
0.03
0.03
0.03
0.03
0.03
0.03
0.03
0.03
0.03
0.03
0.03
0.03
0.03
0.03
0.03
0.03
0.03
0.03
0.03
0.03
0.03
0.03
0.03
0.03
0.03
0.03
0.03
0.03
0.03
0.03
0.03
0.03
0.03
0.03
0.03
0.03
0.03
0.03
0.03
0.03
0.03
0.03
0.03
0.03
0.03
0.03
0.03
0.03
0.03
0.03
0.03
0.03
0.03
0.03
0.03
0.03
0.03
0.03
0.03
0.03
0.03
0.03
0.03
0.03
0.03
0.03
0.03
0.03
0.03
0.03
0.03
0.03

VECTORS velocity float
0.0011545706074684858 -7.201437473297119 -0.006388955283910036
4.825173527933657e-05 -7.159404277801514 0.0005922971176914871
0.0003795188677031547 -7.190548419952393 0.00020805196254514158
0.0014563164440914989 -7.199995517730713 -0.0006640316569246352
7.65819859225303e-05 -7.199990272521973 -0.002356857294216752
-6.607683462789282e-05 -7.135329723358154 0.00022698738030157983
-8.040184184210375e-05 -7.1358866691589355 8.78500213730149e-05
0.006055657751858234 -7.1946492195129395 -0.010408831760287285
-0.01059871818870306 -7.199851989746094 0.017691759392619133
-0.027379879727959633 -7.198624610900879 0.0011979799019172788
3.3171407267218456e-05 -7.199224472045898 3.751328040380031e-05
-0.0008812948944978416 -7.199993133544922 0.0002747821854427457
1.65988731168909e-05 -7.199999809265137 6.307358125923201e-05
2.074609028568375e-06 -7.199488162994385 -0.0008568956982344389
-0.0024475506506860256 -7.198398590087891 0.0077348388731479645
-0.0015816978411749005 -7.194960594177246 -0.0016314390813931823
0.00018414449004922062 -7.132503032684326 0.0013361399760469794
-0.0025623200926929712 -7.200016021728516 0.0007284774328581989
-0.0009560409816913307 -7.199992656707764 -0.004931178875267506
-0.171820268034935 -6.672067642211914 0.09171978384256363
-0.0076342481188476086 -7.1996941566467285 0.01352828461676836
0.024037526920437813 -7.193324565887451 9.947600483428687e-05
0.004373516421765089 -7.198217868804932 0.0008715552394278347
0.0006025091861374676 -7.199999809265137 -6.498376751551405e-05
-0.0014935779618099332 -7.087150573730469 -0.005206620320677757
-0.0039886729791760445 -7.199990749359131 -0.013388766907155514
-0.0022011022083461285 -7.199997901916504 -0.0007785324705764651
7.287508196895942e-06 -7.200000286102295 -8.532460014976095e-06
0.006109215319156647 -7.17824649810791 -0.002956612501293421
0.003844310063868761 -7.199881076812744 0.013666052371263504
-0.0021454431116580963 -7.199997425079346 -0.0008967804023995996
-4.2023995774798095e-05 -7.140502452850342 -0.00036404671845957637
0.009614815935492516 -7.192800521850586 -0.0021069368813186884
-7.446260860888287e-05 -7.199999809265137 -0.0008930206531658769
-4.612732482200954e-06 -7.199999809265137 -0.00011848690337501466
-0.004763160366564989 -6.987307071685791 0.19597718119621277
0.0001553299807710573 -7.199682235717773 4.7875215386739e-05
0.00021830809419043362 -7.199999809265137 0.00013860106992069632
0.006537139881402254 -7.184378623962402 0.0023451976012438536
0.000806509458925575 -7.198623180389404 -0.0005875829956494272
0.0007683928706683218 -7.18466329574585 0.00240129791200161
0.0001274815440410748 -7.193191051483154 -0.002021112944930792
0.005292742047458887 -7.199984073638916 0.006423461716622114
0.0013851838884875178 -7.199612140655518 0.0012720741797238588
-0.00030797606450505555 -7.198105812072754 3.332647247589193e-05
0.0020625859033316374 -7.199707508087158 0.001389744458720088
0.0002133213129127398 -7.085415840148926 0.0014498706441372633
-0.0003406906616874039 -7.178204536437988 -5.561896614381112e-05
9.295259224018082e-05 -7.1999993324279785 1.5707120837760158e-05
0.0021242115180939436 -7.200098037719727 -0.00599383981898427
-0.00018718361388891935 -7.199999809265137 0.00010691701754694805
0.0015806070296093822 -7.1998209953308105 0.0024585758801549673
-0.0016219235258176923 -7.199615001678467 -0.0003009811625815928
-0.0026422948576509953 -7.199990749359131 -0.003164149122312665
0.00903321336954832 -7.197464942932129 -0.002373708412051201
-0.0016387449577450752 -7.1999897956848145 0.00014414142060559243
0.00024461079738102853 -7.149496078491211 -9.860641148407012e-05
0.00011197922867722809 -7.1221842765808105 -0.00012133233394706622
3.516694050631486e-05 -7.143894195556641 -3.220130383851938e-05
0.0002694627328310162 -7.1999969482421875 0.003168016904965043
0.00030206775409169495 -7.146320819854736 0.010572567582130432
-0.0010773895774036646 -7.1999993324279785 -0.00013024844520259649
0.00044965327833779156 -7.188794136047363 0.00015217695909086615
0.0008376348996534944 -7.148571014404297 -0.00011247152724536136
0.0015051154186949134 -7.200016498565674 -0.002047762041911483
-0.006780917290598154 -7.156188011169434 -0.0003723989939317107
0.00015800555411260575 -7.199999809265137 -0.0004558323125820607
0.0029607145115733147 -7.199873924255371 -0.008017205633223057
-5.621225227514515e-06 -7.154233932495117 3.4142664162573055e-07
-0.0064285085536539555 -7.198774814605713 0.012192600406706333
-0.0001903715601656586 -7.199916362762451 0.0002453871420584619
9.417918249710056e-07 -7.199999809265137 -3.9817132346797734e-07
0.006980472709983587 -7.199979305267334 0.0006263130926527083
-0.0006855944520793855 -7.200030326843262 8.93001924850978e-05
0.0010409440146759152 -7.199998378753662 0.00028051951085217297
-0.0002540080458857119 -7.143377304077148 -0.00031178758945316076
0.0006875972030684352 -7.196502208709717 -0.02159919962286949
-0.0001087626296794042 -7.198728084564209 1.81178875209298e-05
-3.1477461561735254e-06 -7.196743011474609 -6.421239231713116e-05
0.0018810391193255782 -7.200252056121826 0.0038708504289388657
-0.003161264583468437 -7.199350833892822 -0.0028391892556101084
0.009855655953288078 -7.173387050628662 -0.001131960190832615
-0.00034314594813622534 -7.199995040893555 -0.0006280775996856391
0.0021473639644682407 -7.199989318847656 0.00029851309955120087
0.00010433643910801038 -7.117763519287109 -0.0021509884390980005
-0.00039447288145311177 -7.200003147125244 -0.00033618242014199495
-0.004525211174041033 -7.176674842834473 -7.664988515898585e-05
-0.0015043494058772922 -7.197712421417236 -0.01340388972312212
0.011682282201945782 -7.193881988525391 0.008415991440415382
0.00021042441949248314 -7.199999809265137 -0.00018298834038432688
-0.00028883464983664453 -7.200004577636719 -0.0003786472079809755
-0.0009977186564356089 -7.1758341789245605 0.02167999930679798
-0.003992543090134859 -7.18235445022583 0.004998530261218548
-6.519821909023449e-05 -7.135713577270508 -1.9815282939816825e-05
0.0016914834268391132 -7.1999969482421875 -0.0032543472480028868
0.0005444844136945903 -7.14426851272583 0.0020076881628483534
0.0031873532570898533 -7.198627948760986 -0.0022126564290374517
0.003396612824872136 -7.12335205078125 -0.0028910378459841013
-0.0021935557015240192 -7.190241813659668 0.0026203268207609653
-0.0003451509983278811 -7.199866771697998 -0.0014221337623894215
0.00019306124886497855 -7.12627649307251 2.0308589228079654e-06
-0.002290775766596198 -7.119904518127441 -0.006154571659862995
-0.0015996728325262666 -7.15321159362793 0.0016829448286443949
0.0422310009598732 -7.198650360107422 -0.026722662150859833
-1.6648862128931796e-06 -7.126953125 3.71029855159577e-05
0.002043110551312566 -7.147650241851807 0.00017752312123775482
-0.007714270148426294 -7.174442768096924 4.695185998571105e-05
4.527852070168592e-05 -7.183725833892822 -5.6654418585821986e-05
0.006269903853535652 -7.199990749359131 -0.009539434686303139
-2.983643935294822e-05 -7.199119567871094 0.00042128420318476856
-5.032643093727529e-05 -7.200000286102295 -0.00010734144598245621
-0.000400544551666826 -7.199914932250977 0.0007427351665683091
0.0006622914224863052 -7.16609525680542 -0.00042998394928872585
-3.8587135350098833e-05 -6.841751575469971 0.0002632108808029443
-0.0005860638921149075 -7.199990272521973 0.00023133837385103106
-0.0002832009631674737 -7.200031280517578 -0.00026018134667538106
0.00012346406583674252 -7.162939548492432 -0.00011362570512574166
-0.0003949771053157747 -6.594992160797119 0.0003338359820190817
0.001687643933109939 -7.111755847930908 0.003129229648038745
-0.008430211804807186 -7.199990272521973 -0.00179450458381325
0.0004405969812069088 -7.148014545440674 0.0015053143724799156
-0.0127817802131176 -7.138030529022217 -0.021159593015909195
0.000675176503136754 -7.199340343475342 -0.000366858730558306
0.0005925250006839633 -7.177374839782715 -0.001634132699109614
-2.093009925374645e-06 -7.142544746398926 -3.710550572577631e-06
-0.0010993632022291422 -7.151568412780762 -0.0011423882097005844
0.002989608095958829 -7.17621374130249 0.014938759617507458
-0.0008650980307720602 -7.199821949005127 -0.0007071252912282944
-0.00015993723354768008 -7.199985027313232 0.000412226771004498
0.0005826567066833377 -7.199999809265137 0.0004821360926143825
0.002660857979208231 -7.1937947273254395 0.0001434158330084756
0.002437948016449809 -7.180261135101318 0.005397409200668335
0.0004587812873069197 -7.19982385635376 0.00037027645157650113
-0.0028445394709706306 -7.199708461761475 0.007132647559046745
-8.379474456887692e-05 -7.187812805175781 -0.0009726145653985441
0.002179605420678854 -7.173768043518066 0.0020261614117771387
0.013012796640396118 -7.1977081298828125 0.006500734481960535
0.005559097044169903 -7.200645923614502 0.0015127660008147359
0.0007230434566736221 -7.197106838226318 0.0017258556326851249
-0.0027016124222427607 -7.1415886878967285 -0.00027592352125793695
-0.0024184908252209425 -7.156041622161865 -0.003985273186117411
1.4334297702589538e-05 -7.120009422302246 5.685948417522013e-05
0.0007396766450256109 -7.179640769958496 -0.0004040929488837719
-7.587233994854614e-05 -7.128072738647461 -0.0005040073883719742
-6.802588814025512e-06 -7.169731616973877 1.2033193570459844e-06
3.350842962390743e-05 -7.1535234451293945 2.5935609301086515e-05
-0.0008156236726790667 -7.171431541442871 0.0011361547512933612
0.0018781910184770823 -7.199995517730713 -0.004105353262275457
-0.002914210082963109 -7.200084209442139 0.0011555575765669346
-5.013270492781885e-05 -7.120619297027588 -1.2714303920802195e-05
-1.507033175585093e-06 -7.076886177062988 5.004644094697142e-07
0.011973060667514801 -7.186645030975342 0.019493747502565384
-0.0006292883772403002 -7.135262966156006 -0.0004697310214396566
0.0014849803410470486 -7.199995517730713 -0.0004064311215188354
1.8867760445573367e-05 -7.122669219970703 -2.148510975530371e-05
-0.0006313950871117413 -7.1579694747924805 0.00018190786067862064
0.00991993397474289 -7.199826240539551 0.0025256136432290077
2.3621234504389577e-05 -7.196735858917236 0.0016457358142361045
0.0021294159814715385 -7.157010555267334 -0.0016533872112631798
0.0043538035824894905 -7.049368381500244 -0.004012869670987129
4.364389678812586e-05 -7.120361804962158 9.905041224556044e-06
8.161649020621553e-06 -7.165100574493408 -4.849738388656988e-07
0.0003101747133769095 -7.199971675872803 0.000616413657553494
0.0038983519189059734 -7.177487373352051 0.0014149014605209231
-0.0001650676131248474 -7.121340751647949 -0.00015405379235744476
-0.003737069433555007 -7.188128471374512 0.01012485846877098
0.0015403733123093843 -6.8061699867248535 0.0015497227432206273
0.0028692283667623997 -7.199689865112305 0.0018747486174106598
-0.0019822814501821995 -7.105466365814209 -0.003651937237009406
0.0053643579594790936 -7.199951648712158 -0.0005809024441987276
6.801892595831305e-05 -7.151286602020264 -5.4378229833673686e-05
-0.000312761781970039 -7.1147284507751465 -0.00010422700870549306
7.54847060306929e-05 -7.199999809265137 7.66202574595809e-05
-0.0006013997481204569 -7.126845836639404 -0.00018171322881244123
-6.491919975815108e-06 -7.167928218841553 -7.142793037928641e-05
0.0035378672182559967 -7.199990272521973 0.0007886252133175731
0.00041538855293765664 -7.20003080368042 0.00060261384351179
0.007070543244481087 -7.197536945343018 -0.006252227816730738
-0.000838921929243952 -7.1137800216674805 -0.001623409567400813
-0.0011344245867803693 -7.192318916320801 -0.00223676604218781
0.0020780221093446016 -7.19449520111084 -0.00595424510538578
-0.019385330379009247 -7.19728422164917 -0.005694246385246515
0.0007555749034509063 -7.163091659545898 0.0002111974754370749
0.0012791522312909365 -7.159667015075684 -0.00015074909606482834
0.00031180394580587745 -7.091785907745361 0.00029904121765866876
-0.0001463768567191437 -7.100391864776611 -2.3712413167231716e-05
-4.271818033885211e-05 -7.111534595489502 -6.675244367215782e-05
0.003713259007781744 -7.185425281524658 0.005476708058267832
0.010541296564042568 -7.163249969482422 -0.0016809526132419705
-0.00032525829738005996 -7.151297092437744 -0.0005608280771411955
0.00012989569222554564 -7.088059902191162 -0.0035417163744568825
0.00013375097478274256 -7.122589111328125 -1.9002784028998576e-05
-7.585083949379623e-06 -7.152487754821777 -2.5368233309563948e-06
-0.0007391037652269006 -7.141409873962402 -0.0006042635068297386