# vtk DataFile Version 3.0
MPM particles frame 0
ASCII
DATASET UNSTRUCTURED_GRID

POINTS 30 float
18.36884307861328 26.348386764526367 1.1759989261627197
18.287931442260742 26.34111213684082 0.9293838739395142
18.026126861572266 26.314058303833008 0.8180853724479675
18.255355834960938 26.34521484375 0.33977776765823364
18.17425537109375 26.317060470581055 0.23140688240528107
18.688690185546875 26.319355010986328 1.0684287548065186
18.213655471801758 26.340633392333984 0.5265215039253235
18.407337188720703 26.34140396118164 1.2431552410125732
19.03494644165039 26.335750579833984 0.5734407305717468
17.89840316772461 26.327041625976562 0.9144993424415588
18.194974899291992 26.33132553100586 1.0384660959243774
18.057207107543945 26.31230354309082 0.2951240837574005
17.960704803466797 26.340097427368164 0.6555449366569519
18.89877700805664 26.309123992919922 0.7589991092681885
18.09676742553711 26.314184188842773 0.3937515318393707
17.929800033569336 26.33875846862793 1.0889389514923096
18.85879135131836 26.318580627441406 0.5714571475982666
18.23185920715332 26.316436767578125 0.2973577082157135
18.308462142944336 26.309162139892578 1.2117817401885986
18.94706153869629 26.31534194946289 0.41099813580513
18.489931106567383 26.342884063720703 0.22119100391864777
17.907779693603516 26.34259796142578 0.8677543997764587
18.15688705444336 26.320722579956055 0.8265110850334167
17.775726318359375 26.321176528930664 0.8364126682281494
18.04271697998047 26.312726974487305 0.34534287452697754
18.89004135131836 26.33384895324707 0.8680241107940674
18.05382537841797 26.315223693847656 0.5506948232650757
17.919057846069336 26.324451446533203 0.4069182872772217
18.18950843811035 26.343679428100586 0.3683100640773773
18.89267921447754 26.31342315673828 0.9120203852653503

CELLS 30 60
1 0
1 1
1 2
1 3
1 4
1 5
1 6
1 7
1 8
1 9
1 10
1 11
1 12
1 13
1 14
1 15
1 16
1 17
1 18
1 19
1 20
1 21
1 22
1 23
1 24
1 25
1 26
1 27
1 28
1 29

CELL_TYPES 30
1
1
1
1
1
1
1
1
1
1
1
1
1
1
1
1
1
1
1
1
1
1
1
1
1
1
1
1
1
1

POINT_DATA 30
SCALARS radius float 1
LOOKUP_TABLE default
0.03
0.03
0.03
0.03
0.03
0.03
0.03
0.03
0.03
0.03
0.03
0.03
0.03
0.03
0.03
0.03
0.03
0.03
0.03
0.03
0.03
0.03
0.03
0.03
0.03
0.03
0.03
0.03
0.03
0.03

VECTORS velocity float
-5.104858246340882e-06 -0.6629651188850403 -3.283776095486246e-05
-1.3509655616417149e-08 -0.6624948382377625 6.475574991782196e-07
0.0 -0.6624627709388733 0.0
3.6156296118861064e-05 -0.6629253029823303 -1.911750587169081e-05
0.0 -0.6626312732696533 0.0
0.0 -0.662468433380127 0.0
-4.4012688249495113e-07 -0.6624539494514465 -7.295777493254718e-08
1.1206514500372577e-05 -0.6624963283538818 2.3627682821825147e-05
4.0075963880781273e-08 -0.6624544262886047 -2.3280148297999403e-07
-7.083081527525792e-06 -0.6627612709999084 1.9882436674834025e-07
2.3109738123139323e-08 -0.6624476313591003 3.409615700888935e-08
0.0 -0.6627565026283264 0.0
2.492113253538264e-07 -0.662447452545166 -3.272814552701675e-08
0.0 -0.6625831127166748 0.0
-1.2988860362384003e-05 -0.6626679301261902 1.9843676000164123e-06
-8.431755560422971e-08 -0.6624462604522705 7.239682275894666e-08
0.0 -0.6624744534492493 0.0
-1.6541486047572107e-06 -0.6628950238227844 -1.1008150124780514e-07
-6.2363110373553354e-06 -0.6626690626144409 8.95832090463955e-06
0.0 -0.662446916103363 0.0
1.1355827922443495e-07 -0.6624475121498108 -2.8375481520015455e-07
7.268575245689135e-06 -0.6627277731895447 8.016097297058877e-08
0.0 -0.6624496579170227 0.0
0.0 -0.6624466180801392 0.0
0.0 -0.6629104614257812 0.0
0.0 -0.662964940071106 0.0
0.0 -0.6624466180801392 0.0
0.0 -0.6624482274055481 0.0
-2.142418634321075e-05 -0.6627262234687805 1.716495353321079e-05
0.0 -0.6628453135490417 0.0

SCALARS speed float 1
LOOKUP_TABLE default
0.6629651188850403
0.6624948382377625
0.6624627709388733
0.6629253029823303
0.6626312732696533
0.662468433380127
0.6624539494514465
0.6624963283538818
0.6624544262886047
0.6627612709999084
0.6624476313591003
0.6627565026283264
0.662447452545166
0.6625831127166748
0.6626679301261902
0.6624462604522705
0.6624744534492493
0.6628950238227844
0.6626690626144409
0.662446916103363
0.6624475121498108
0.6627277731895447
0.6624496579170227
0.6624466180801392
0.6629104614257812
0.662964940071106
0.6624466180801392
0.6624482274055481
0.6627262234687805
0.6628453135490417
