# vtk DataFile Version 3.0
MPM particles frame 1
ASCII
DATASET UNSTRUCTURED_GRID

POINTS 399 float
18.368879318237305 26.041580200195312 1.1758567094802856
18.287931442260742 26.01910972595215 0.9293848872184753
18.026094436645508 25.98491096496582 0.8180670142173767
18.255428314208984 26.003501892089844 0.33979594707489014
18.174253463745117 25.982891082763672 0.2314072996377945
18.688688278198242 25.99639892578125 1.0684465169906616
18.213655471801758 26.01797103881836 0.5265241861343384
18.407997131347656 26.025724411010742 1.2417861223220825
19.03494644165039 26.03692626953125 0.5734416842460632
17.898401260375977 26.001384735107422 0.9144839644432068
18.194974899291992 25.995210647583008 1.0384660959243774
18.057207107543945 25.977657318115234 0.2951229512691498
17.96071434020996 26.002704620361328 0.6555677056312561
18.89877700805664 25.97218132019043 0.7590228915214539
18.096694946289062 25.973867416381836 0.39398500323295593
17.929943084716797 26.01903533935547 1.0889335870742798
18.85881805419922 25.98387336730957 0.5716661810874939
18.231788635253906 25.976818084716797 0.2973295748233795
18.3084716796875 25.988590240478516 1.2116986513137817
18.94706153869629 25.987667083740234 0.41099873185157776
18.489770889282227 26.011003494262695 0.22107164561748505
17.907785415649414 26.037485122680664 0.8677845001220703
18.156885147094727 26.005428314208984 0.8265226483345032
17.775842666625977 25.97901725769043 0.8364006280899048
18.042701721191406 25.98511505126953 0.34526506066322327
18.89004135131836 26.00372314453125 0.8680234551429749
18.053823471069336 25.976818084716797 0.5506958365440369
17.919057846069336 25.99526596069336 0.406918466091156
18.189599990844727 26.00383186340332 0.3681718111038208
18.89267921447754 25.97661018371582 0.9120230674743652
18.136756896972656 26.009851455688477 0.4952762722969055
18.772071838378906 26.041736602783203 0.6343493461608887
18.19235610961914 26.037784576416016 0.18009351193904877
18.90852165222168 26.036096572875977 0.559694230556488
18.05945587158203 26.043119430541992 1.057698130607605
18.44896125793457 26.014745712280273 0.07822398841381073
18.314680099487305 26.06026840209961 1.029866099357605
18.08860206604004 26.020496368408203 1.1636008024215698
18.510177612304688 26.045251846313477 0.29557329416275024
18.264272689819336 26.047962188720703 0.7534410953521729
17.899736404418945 26.02444076538086 0.38305652141571045
17.947933197021484 26.011791229248047 0.7543692588806152
18.512449264526367 26.036096572875977 0.9473035335540771
18.174938201904297 26.05764389038086 0.5072993636131287
18.599916458129883 26.023733139038086 0.7400243282318115
18.154359817504883 26.059030532836914 0.501408040523529
18.634307861328125 26.035533905029297 0.1468423455953598
18.390058517456055 26.042478561401367 0.7463712692260742
18.558971405029297 26.01341438293457 0.48751580715179443
18.8380069732666 26.07233428955078 1.150625228881836
18.0300235748291 26.031293869018555 1.1667557954788208
18.24115562438965 26.053186416625977 0.25644463300704956
18.675703048706055 26.054616928100586 0.827389121055603
18.53800392150879 26.03374481201172 0.9566380381584167
17.897743225097656 26.026002883911133 1.1394145488739014
18.593534469604492 26.064167022705078 0.23547866940498352
18.274330139160156 26.0504150390625 1.3279612064361572
18.50876235961914 26.04161834716797 1.0511620044708252
18.742944717407227 26.03848648071289 0.3877882957458496
18.298446655273438 26.02629852294922 1.2277812957763672
18.817821502685547 26.053125381469727 1.1743338108062744
18.557485580444336 26.10759735107422 0.8967746496200562
17.969064712524414 26.054323196411133 0.3871843218803406
17.906261444091797 26.04383087158203 0.8485525846481323
18.64794158935547 26.100326538085938 0.380060076713562
18.815519332885742 26.11314582824707 0.47678878903388977
18.785011291503906 26.099220275878906 0.30237117409706116
17.888092041015625 26.1151180267334 1.0159516334533691
18.456329345703125 26.066932678222656 1.385166883468628
18.161542892456055 26.085302352905273 0.11720122396945953
18.296445846557617 26.07113265991211 0.8982385396957397
18.589738845825195 26.061206817626953 0.5967498421669006
18.763694763183594 26.093395233154297 0.4282350242137909
18.8297176361084 26.086877822875977 0.30563539266586304
18.14440155029297 26.043834686279297 0.4911726415157318
18.24048614501953 26.09429168701172 1.1612719297409058
18.930524826049805 26.08546257019043 0.5174115896224976
18.65145492553711 26.05205726623535 1.108367919921875
17.929643630981445 26.04763412475586 0.5778213739395142
17.865215301513672 26.131765365600586 0.41814225912094116
18.51927375793457 26.090871810913086 0.90376216173172
18.869216918945312 26.092628479003906 0.29718029499053955
18.727462768554688 26.067575454711914 1.1890769004821777
18.425670623779297 26.051271438598633 1.1512796878814697
18.9993896484375 26.089990615844727 1.1054505109786987
18.696334838867188 26.079326629638672 1.1329265832901
18.155046463012695 26.04383659362793 0.8520752787590027
18.491071701049805 26.035411834716797 0.27723240852355957
17.94438362121582 26.054380416870117 0.2706919312477112
18.703996658325195 26.091793060302734 0.23599529266357422
18.72972869873047 26.0628662109375 1.0829945802688599
18.958900451660156 26.093441009521484 0.5036767721176147
18.581287384033203 26.11591911315918 1.2962783575057983
18.31804084777832 26.106279373168945 0.15405325591564178
19.00479507446289 26.103900909423828 0.6034358739852905
18.46814727783203 26.096973419189453 0.3907751739025116
18.689359664916992 26.12570571899414 1.2683626413345337
18.56619644165039 26.085420608520508 0.24334664642810822
18.31695556640625 26.09291648864746 1.1688261032104492
18.795944213867188 26.098188400268555 1.1359177827835083
18.987638473510742 26.083852767944336 0.3824603855609894
17.84140396118164 26.11685562133789 0.947697639465332
18.62301254272461 26.115514755249023 0.3630439341068268
17.899982452392578 26.095613479614258 1.1473339796066284
18.295137405395508 26.1264591217041 1.0481407642364502
18.57168960571289 26.091814041137695 0.8612814545631409
18.87143898010254 26.104690551757812 0.25812944769859314
18.577722549438477 26.106565475463867 1.1558008193969727
19.070505142211914 26.083477020263672 0.5559085607528687
18.70086097717285 26.10477066040039 0.3422958552837372
18.483369827270508 26.119720458984375 0.7875822186470032
18.005449295043945 26.12977409362793 0.36126670241355896
18.054698944091797 26.121599197387695 0.3232361674308777
18.921213150024414 26.134113311767578 0.9787713885307312
18.42664337158203 26.124235153198242 0.4811984896659851
17.986692428588867 26.12409210205078 0.34491196274757385
18.148174285888672 26.117399215698242 0.7737282514572144
18.774444580078125 26.11771583557129 0.9634892344474792
17.792234420776367 26.144689559936523 0.5954594016075134
19.04649543762207 26.139572143554688 0.5995209217071533
18.280345916748047 26.133499145507812 0.07089479267597198
18.4998836517334 26.122817993164062 0.624692440032959
18.73506736755371 26.13951873779297 0.5320276618003845
18.56098175048828 26.14069366455078 0.9779223799705505
18.44198989868164 26.146738052368164 0.7868703603744507
18.106821060180664 26.1434268951416 1.2909793853759766
17.8819580078125 26.15264129638672 1.040097951889038
18.481678009033203 26.169105529785156 1.432513952255249
18.660655975341797 26.136194229125977 0.2848033308982849
18.723875045776367 26.142160415649414 0.7743255496025085
18.880390167236328 26.137357711791992 0.8303108811378479
18.296348571777344 26.10556983947754 1.2341030836105347
18.105642318725586 26.145008087158203 0.8408386707305908
18.42948341369629 26.159393310546875 1.2111567258834839
18.151527404785156 26.153736114501953 1.239753007888794
17.845447540283203 26.183307647705078 1.1359480619430542
17.763267517089844 26.15790557861328 0.5085611343383789
18.007265090942383 26.13605499267578 0.849668025970459
18.596906661987305 26.149005889892578 0.9241265058517456
18.875947952270508 26.142972946166992 0.8046181797981262
18.223726272583008 26.117496490478516 1.2967177629470825
18.327957153320312 26.132780075073242 0.5991725325584412
18.0887451171875 26.145526885986328 0.7966974973678589
18.201236724853516 26.131107330322266 0.5124449729919434
18.590505599975586 26.125703811645508 0.6296981573104858
18.089574813842773 26.12664222717285 0.21077845990657806
18.615699768066406 26.134977340698242 0.10068322718143463
19.007823944091797 26.108652114868164 0.595373809337616
18.855907440185547 26.12710189819336 0.32081812620162964
18.392488479614258 26.15329360961914 0.0986861065030098
18.14682960510254 26.131641387939453 0.993150532245636
18.438997268676758 26.144542694091797 0.6767362952232361
18.755752563476562 26.13978385925293 0.7544527649879456
18.005773544311523 26.153987884521484 0.4093943238258362
18.362285614013672 26.163753509521484 0.9318193793296814
18.17215919494629 26.167810440063477 0.2778409719467163
17.95938491821289 26.16443634033203 0.832226574420929
18.956716537475586 26.182037353515625 1.0089623928070068
18.501571655273438 26.19661521911621 0.5620347857475281
18.212427139282227 26.16668128967285 0.7460340261459351
18.386600494384766 26.191219329833984 0.1412615180015564
18.921720504760742 26.185651779174805 0.35857632756233215
18.076377868652344 26.185020446777344 0.615585207939148
19.0377254486084 26.180940628051758 0.546220600605011
18.727352142333984 26.17434310913086 0.15327972173690796
18.4097843170166 26.119998931884766 1.2177678346633911
17.855531692504883 26.2559757232666 1.1126022338867188
17.929615020751953 26.187314987182617 0.8347840309143066
18.598237991333008 26.1553897857666 1.2892143726348877
19.041921615600586 26.15867805480957 0.5388106107711792
18.86504364013672 26.173383712768555 1.139207124710083
18.051376342773438 26.184228897094727 0.5670419931411743
18.594383239746094 26.177223205566406 0.2923358678817749
18.564090728759766 26.161888122558594 0.8196007609367371
18.102558135986328 26.16727066040039 1.1250333786010742
[...]
POINT_DATA 399
SCALARS radius float 1
LOOKUP_TABLE default
0.03
0.03
0.03
0.03
0.03
0.03
0.03
0.03
0.03
0.03
0.03
0.03
0.03
0.03
0.03
0.03
0.03
0.03
0.03
0.03
0.03
0.03
0.03
0.03
0.03
0.03
0.03
0.03
0.03
0.03
0.03
0.03
0.03
0.03
0.03
0.03
0.03
0.03
0.03
0.03
0.03
0.03
0.03
0.03
0.03
0.03
0.03
0.03
0.03
0.03
0.03
0.03
0.03
0.03
0.03
0.03
0.03
0.03
0.03
0.03
0.03
0.03
0.03
0.03
0.03
0.03
0.03
0.03
0.03
0.03
0.03
0.03
0.03
0.03
0.03
0.03
0.03
0.03
0.03
0.03
0.03
0.03
0.03
0.03
0.03
0.03
0.03
0.03
0.03
0.03
0.03
0.03
0.03
0.03
0.03
0.03
0.03
0.03
0.03
0.03
0.03
0.03
0.03
0.03
0.03
0.03
0.03
0.03
0.03
0.03
0.03
0.03
0.03
0.03
0.03
0.03
0.03
0.03
0.03
0.03
0.03
0.03
0.03
0.03
0.03
0.03
0.03
0.03
0.03
0.03
0.03
0.03
0.03
0.03
0.03
0.03
0.03
0.03
0.03
0.03
0.03
0.03
0.03
0.03
0.03
0.03
0.03
0.03
0.03
0.03
0.03
0.03
0.03
0.03
0.03
0.03
0.03
0.03
0.03
0.03
0.03
0.03
0.03
0.03
0.03
0.03
0.03
0.03
0.03
0.03
0.03
0.03
0.03
0.03
0.03
0.03
0.03
0.03
0.03
0.03
0.03
0.03
0.03
0.03
0.03
0.03
0.03
0.03
0.03
0.03
0.03
0.03
0.03
0.03
0.03
0.03
0.03
0.03
0.03
0.03
0.03
0.03
0.03
0.03
0.03
0.03
0.03
0.03
0.03
0.03
0.03
0.03
0.03
0.03
0.03
0.03
0.03
0.03
0.03
0.03
0.03
0.03
0.03
0.03
0.03
0.03
0.03
0.03
0.03
0.03
0.03
0.03
0.03
0.03
0.03
0.03
0.03
0.03
0.03
0.03
0.03
0.03
0.03
0.03
0.03
0.03
0.03
0.03
0.03
0.03
0.03
0.03
0.03
0.03
0.03
0.03
0.03
0.03
0.03
0.03
0.03
0.03
0.03
0.03
0.03
0.03
0.03
0.03
0.03
0.03
0.03
0.03
0.03
0.03
0.03
0.03
0.03
0.03
0.03
0.03
0.03
0.03
0.03
0.03
0.03
0.03
0.03
0.03
0.03
0.03
0.03
0.03
0.03
0.03
0.03
0.03
0.03
0.03
0.03
0.03
0.03
0.03
0.03
0.03
0.03
0.03
0.03
0.03
0.03
0.03
0.03
0.03
0.03
0.03
0.03
0.03
0.03
0.03
0.03
0.03
0.03
0.03
0.03
0.03
0.03
0.03
0.03
0.03
0.03
0.03
0.03
0.03
0.03
0.03
0.03
0.03
0.03
0.03
0.03
0.03
0.03
0.03
0.03
0.03
0.03
0.03
0.03
0.03
0.03
0.03
0.03
0.03
0.03
0.03
0.03
0.03
0.03
0.03
0.03
0.03
0.03
0.03
0.03
0.03
0.03
0.03
0.03
0.03
0.03
0.03
0.03
0.03
0.03
0.03
0.03
0.03
0.03
0.03
0.03
0.03
0.03
0.03
0.03
0.03
0.03
0.03
0.03
0.03
0.03
0.03
0.03
0.03
0.03
0.03
0.03
0.03
0.03
0.03
0.03

VECTORS velocity float
0.0008791755535639822 -2.388313055038452 -0.0018491861410439014
-9.470514669374097e-06 -2.492635726928711 5.922160198679194e-06
-0.00026083423290401697 -2.5107576847076416 -0.00015576147416140884
0.000337482983013615 -2.5943214893341064 0.00012193408474558964
-0.0001199270918732509 -2.559314250946045 -1.1675391760945786e-05
-6.231207225937396e-05 -2.4925520420074463 0.00021243964147288352
9.943917575583328e-06 -2.4814958572387695 -1.109310119318252e-06
0.006499778479337692 -2.4022316932678223 -0.015126429498195648
-4.175064987066435e-06 -2.356813430786133 3.5496161672199378e-06
2.2802845705882646e-05 -2.511282205581665 -0.00014430728333536536
1.4302361250884132e-06 -2.5506622791290283 -2.455810090395971e-06
-4.107410859433003e-05 -2.555267333984375 9.27600012801122e-06
3.926450517610647e-05 -2.5722267627716064 0.00010700314305722713
1.3460812624543905e-05 -2.5571017265319824 0.00015357490337919444
-0.001604892429895699 -2.5808351039886475 0.004453031811863184
0.0008136539254337549 -2.483920097351074 4.5555676479125395e-05
0.0002701608755160123 -2.549574375152588 0.0019385670311748981
-0.0007041334174573421 -2.597108840942383 0.00020498396770562977
0.00032986761652864516 -2.478972911834717 -0.001020126393996179
-1.4000945157022215e-05 -2.506154775619507 6.778750503144693e-06
-0.0014669675147160888 -2.5376453399658203 0.005079100839793682
1.4655019185738638e-05 -2.3697633743286133 6.612255674554035e-05
-5.966727258055471e-05 -2.4545786380767822 0.00010465412924531847
0.0006853169179521501 -2.5925180912017822 -7.229706534417346e-05
-0.0003988160751760006 -2.5158767700195312 -0.002031495328992605
-6.663460681011202e-06 -2.513105869293213 -1.5763738701934926e-05
-0.00012022098962916061 -2.5750794410705566 2.861115717678331e-05
3.843766535283066e-06 -2.5531258583068848 3.66440394827805e-06
0.0025973657611757517 -2.5773274898529053 -0.002991470042616129
-5.136889740242623e-06 -2.56609845161438 2.904672692238819e-05
-0.00026701678871177137 -2.453948736190796 0.0012245067628100514
-3.239794750697911e-05 -2.413477659225464 4.709618224296719e-05
3.804426523856819e-05 -2.408724546432495 1.8232276488561183e-05
-0.00015839321713428944 -2.4259893894195557 -0.0014129809569567442
-9.366004860567045e-07 -2.413846254348755 -6.961513281567022e-05
0.00013986197882331908 -2.4188663959503174 0.0007330874213948846
-3.296894647064619e-05 -2.3636879920959473 -4.366954090073705e-05
8.3927545347251e-05 -2.3871665000915527 0.00015574439021293074
0.00325038586743176 -2.385843515396118 0.001339660375379026
-0.00014439782535191625 -2.3825042247772217 0.00041078022331930697
-7.1628610385232605e-06 -2.391261339187622 1.0627719575495576e-06
-4.915407771477476e-05 -2.431724786758423 -0.0002165413461625576
-5.049269020673819e-05 -2.426800012588501 -4.9624857638264075e-05
4.527346391114406e-05 -2.370537042617798 -0.00016404561756644398
-0.00036693751462735236 -2.4134764671325684 -0.000387582927942276
4.406869993545115e-05 -2.364926338195801 -0.00035041553201153874
0.0016179827507585287 -2.364393949508667 -0.0023327458184212446
-1.276147577300435e-05 -2.3890719413757324 -3.96531613660045e-05
3.976491825596895e-06 -2.4221177101135254 1.9513479401211953e-06
-3.303436869828147e-06 -2.231293201446533 4.1382496419828385e-05
-5.0462847866583616e-05 -2.4401121139526367 7.292710506590083e-05
0.00031088251853361726 -2.3785386085510254 0.00017440711962990463
0.0006004553288221359 -2.3032257556915283 2.6957392037729733e-05
-0.00014501070836558938 -2.3536036014556885 7.614803962496808e-06
-0.00010003632633015513 -2.3871123790740967 0.000321613741107285
-0.00011973247455898672 -2.254962921142578 -0.0002914007054641843
-5.560776571655879e-06 -2.363372802734375 1.4699416169605684e-05
2.167306956835091e-05 -2.441511392593384 -2.9292761610122398e-05
5.719689397665206e-07 -2.379394292831421 6.968341494939523e-07
-0.00012166189844720066 -2.3883440494537354 0.00010649653995642439
-4.39347331848694e-06 -2.302814483642578 7.1910903898242395e-06
-0.00027967215282842517 -2.0876100063323975 0.00023130790214054286
-2.361700353503693e-05 -2.2599375247955322 -6.410778610188572e-07
2.5765697500901297e-05 -2.2885360717773438 -0.00019210769096389413
-3.737157840077998e-06 -2.1845905780792236 -4.850969617109513e-07
-4.182206976111047e-05 -2.0790789127349854 -0.00022670920589007437
1.883305776573252e-05 -2.1908504962921143 -6.585635674127843e-06
-0.00020882872922811657 -2.0464839935302734 -0.0003786439774557948
-6.07784068051842e-06 -2.1852619647979736 2.455794572142622e-07
0.0002363153180340305 -2.2823703289031982 0.0005250333924777806
-1.3969718565931544e-05 -2.269803524017334 -4.070446266268846e-06
6.847229769846308e-07 -2.2427895069122314 -3.974587912125571e-07
-4.32323986387928e-06 -2.1776106357574463 -6.5315225583617575e-06
-4.777806680067442e-06 -2.1941652297973633 -4.2848637349379715e-07
-0.00016499780758749694 -2.3937883377075195 -0.0007962561212480068
-4.79728369100485e-05 -2.2036845684051514 -0.0001611822663107887
-2.756874164333567e-05 -2.219759702682495 -0.0001424895308446139
-2.7263793526799418e-05 -2.2868874073028564 6.85940176481381e-05
-3.344423384987749e-05 -2.3038699626922607 -0.00011172342055942863
0.0005728653050027788 -1.9782533645629883 0.00027345423586666584
-9.682659583631903e-05 -2.2363131046295166 0.00013249203038867563
-1.2432437870302238e-06 -2.1182610988616943 -1.134440708483453e-06
-6.012344965711236e-05 -2.256852388381958 0.0003758961393032223
0.001078714500181377 -2.2887935638427734 -0.0008691379334777594
1.3373932233662345e-05 -2.239569664001465 -0.0025603589601814747
-8.326904207933694e-06 -2.2683730125427246 -0.00019403368060011417
-1.5123956472962163e-05 -2.3248424530029297 3.310458123451099e-05
-0.0023465000558644533 -2.3749659061431885 -0.0051298001781105995
1.4588582644137205e-06 -2.2859256267547607 1.3845635749021312e-06
2.538900616855244e-06 -2.2094876766204834 -1.8147740775020793e-05
4.548654760583304e-05 -2.2874112129211426 -8.419187361141667e-05
-6.653826858382672e-06 -2.1829073429107666 -2.824038745075086e-07
-1.5129030543903355e-05 -1.9930063486099243 4.699984401668189e-06
-1.1401853043935262e-05 -2.063864231109619 -6.645563189522363e-06
-1.4528592146234587e-05 -2.0780720710754395 1.793094452295918e-05
-5.836985565110808e-06 -2.110424518585205 -9.896004939946579e-07
1.9039289327338338e-05 -2.075131416320801 -0.00010634225327521563
0.0004399437748361379 -2.163018226623535 -0.001263187499716878
-0.0016728265909478068 -2.248007297515869 0.001049696234986186
2.177015812776517e-05 -2.1684019565582275 -8.881020039552823e-05
1.205471380671952e-05 -2.1767542362213135 4.792035568357278e-08
-0.00013413523265626281 -2.0693888664245605 5.490013427333906e-05
9.789281648409087e-06 -2.1283435821533203 -6.008959303471784e-07
-6.312852201517671e-05 -2.1933400630950928 0.0001196466400870122
-3.7780214370286558e-06 -2.0528435707092285 3.632149309851229e-05
-0.0005728506948798895 -2.1078827381134033 0.00014406911213882267
2.4192361252062256e-06 -2.0532262325286865 -2.7224364202993456e-06
-1.7060660866263788e-06 -2.082566738128662 -5.461476575874258e-06
3.0090254767856095e-06 -2.1817221641540527 -8.324032023665495e-07
-8.878559128788766e-06 -2.144784688949585 7.1753497650206555e-06
-3.890808147843927e-05 -2.018678903579712 -9.340671385871246e-05
-6.63034097669879e-06 -2.0261192321777344 2.483699790900573e-05
4.613974851963576e-06 -2.1076505184173584 -4.406350399221992e-06
-3.980519250035286e-05 -1.9664920568466187 -5.498975588125177e-05
-3.148562609567307e-05 -1.971469521522522 -2.4610104446765035e-05
-1.3521864275389817e-05 -2.091972827911377 7.700047717662528e-06
-1.8026410543825477e-05 -2.0668997764587402 1.5459137330253725e-06
-1.3959756870463025e-05 -2.1036367416381836 -5.12904989591334e-05
3.79454445464944e-06 -1.8776590824127197 2.020650299527915e-06
5.970099209662294e-06 -1.970263957977295 9.659760507929605e-06
-6.637875230808277e-06 -2.055184841156006 3.4780359783326276e-06
-0.0007651735213585198 -2.0784270763397217 -0.0022635282948613167
-1.7845542970462702e-05 -1.8876498937606812 -1.5012957192084286e-05
-3.312391345389187e-05 -1.9075881242752075 1.7049635061994195e-05
-8.727305612410419e-06 -1.8902950286865234 -1.405033003720746e-06
8.924426947487518e-05 -1.8728320598602295 8.326136594405398e-05
-0.0001259606215171516 -1.8592195510864258 -0.00034398806747049093
-8.781089491094463e-06 -1.7968497276306152 1.0350130423830706e-06
1.9409431843087077e-05 -2.063509464263916 2.175711233576294e-05
-6.488621875178069e-05 -1.9721834659576416 -2.7800400857813656e-05
-3.497378429528908e-06 -2.028986692428589 -4.839736720896326e-05
-0.0003936889988835901 -2.1406309604644775 0.0005177530692890286
-3.892222594004124e-06 -1.9133358001708984 -5.658217105519725e-06
-0.0034388587810099125 -1.9052486419677734 0.008899420499801636
-4.907151378574781e-05 -1.9556957483291626 -6.705167470499873e-05
0.00013092340668663383 -1.6904165744781494 -0.0001057933404808864
0.010835188440978527 -1.920380711555481 0.003716615028679371
0.0002208729856647551 -1.928766131401062 8.122763392748311e-05
0.00014895272033754736 -1.8629506826400757 8.826286648400128e-05
-9.964336641132832e-06 -1.979272723197937 -0.00013341684825718403
5.9511654399102554e-05 -2.0098695755004883 -1.4666949937236495e-05
-5.529516784008592e-06 -1.9309698343276978 2.222777993665659e-06
1.6840039052112843e-06 -1.913508653640747 -2.918755399150541e-06
-1.2260343282832764e-05 -2.112748861312866 -1.114001133828424e-05
-6.964442945900373e-06 -1.916514277458191 5.092633159620163e-07
-3.4595780107338214e-06 -1.957829475402832 -1.542222207717714e-06
-0.001001439057290554 -1.971436619758606 0.001396981067955494
-1.369259916828014e-05 -2.0747568607330322 1.598424387339037e-05
-6.780158855690388e-06 -2.025662660598755 1.1879094472533325e-06
-8.439466910203919e-06 -1.8391164541244507 -1.585542008797347e-06
-3.2128350540006068e-06 -1.989412546157837 -5.980961304885568e-06
-8.701500519237015e-06 -1.9329077005386353 0.0010929867858067155
5.590618911810452e-06 -1.9142287969589233 3.892278982675634e-06
-8.911412805900909e-06 -1.85085928440094 5.292681453283876e-05
2.1744361220044084e-05 -1.8540611267089844 -5.845473424415104e-06
9.52285154198762e-06 -1.8576103448867798 -5.320817308529513e-06
0.00018557147996034473 -1.857771635055542 9.427402255823836e-05
-3.797170575126074e-05 -1.7116698026657104 0.001367868040688336
0.0007785120396874845 -1.77754807472229 0.0010315109975636005
0.00010609868331812322 -1.7847130298614502 -0.00032204523449763656
-2.2263229766394943e-06 -1.7008846998214722 2.1147403117538488e-07
6.085469067329541e-06 -1.8003110885620117 6.397316951733956e-07
4.659956903196871e-05 -1.799506664276123 0.00017291880794800818
3.879269570461474e-06 -1.8483304977416992 -1.655871710681822e-05
-0.000168814483913593 -1.7225408554077148 0.00027865738957189023
-0.003583037992939353 -2.1036767959594727 0.009856350719928741
6.304668659140589e-06 -1.2021116018295288 2.436846261844039e-05
7.565323903691024e-05 -1.8019397258758545 0.0001261113357031718
1.0067040420835838e-05 -1.9083243608474731 -6.308731826720759e-06
2.8285805910854833e-06 -1.9280245304107666 -1.3628415217681322e-05
8.447298569080885e-06 -1.8375520706176758 -1.4825657672190573e-05
-4.2063962609972805e-05 -1.800391435623169 -0.00017531291814520955
9.639748168410733e-05 -1.8458595275878906 1.8203401850769296e-05
-0.00014054738858249038 -1.7792824506759644 -0.000611349765677005
-1.798191988200415e-05 -1.8263839483261108 -8.186970080714673e-05
1.1892498150700703e-05 -1.8835104703903198 -1.680789682723116e-05
-8.991023787530139e-05 -1.7733498811721802 0.00011903186532435939
0.0026844751555472612 -1.861508846282959 0.0008151134243234992
-5.559618512052111e-05 -1.7213919162750244 2.213651532656513e-05
1.2308743862377014e-05 -2.019789934158325 -6.85996055835858e-05
-9.276030141336378e-06 -1.8170359134674072 2.780190868634236e-07
8.992920629680157e-05 -1.939766764640808 0.0002860873064491898
-5.4711067605239805e-06 -1.7663426399230957 -6.469226718763821e-07
2.646542270667851e-05 -1.8419079780578613 3.3342591905238805e-06
-2.243212975372444e-06 -1.484790563583374 -1.4234339005270158e-06
-0.000248775992076844 -1.5809160470962524 -1.7871490854304284e-05
2.5891138193401275e-06 -1.5585005283355713 -9.918279101839289e-05
6.756370567018166e-06 -1.6611512899398804 -6.39687932562083e-05
5.553477967623621e-05 -1.6189866065979004 0.00012095880083506927
-2.58029672295379e-06 -1.5786192417144775 -1.0164440027438104e-05
1.0436157936055679e-05 -1.5827500820159912 1.3062725656709517e-06
-3.999153705080971e-06 -1.7174419164657593 2.6148211418330902e-06
1.190860984934261e-06 -1.4948699474334717 1.6159185634023743e-07
1.1040888239222113e-05 -1.6521908044815063 5.8952726249117404e-05
-4.914119926979765e-05 -1.6827852725982666 4.609537427313626e-05
-3.610431804190739e-06 -1.6776626110076904 -6.027927156537771e-05
-6.643621873081429e-06 -1.3682588338851929 5.667409823217895e-06
3.818341156147653e-06 -1.6080620288848877 1.0666808520909399e-05
0.0006569733377546072 -1.6907597780227661 0.00043071332038380206
2.7189014417672297e-06 -1.6502281427383423 1.0494278285477776e-05
3.87959562431206e-06 -1.6405268907546997 1.4398575558516313e-06
-6.27482877462171e-05 -1.5519658327102661 0.00023774098372086883
-8.021894609555602e-05 -1.6329089403152466 -2.0480019884416834e-05
-9.357301678392105e-06 -1.6209012269973755 7.785208254063036e-06
7.636801456101239e-06 -1.6742578744888306 3.1988842238206416e-05
6.998562457738444e-05 -1.7253286838531494 -0.00017147253674920648
-2.2031339540262707e-05 -1.4647117853164673 -5.67765673622489e-05
3.367826866451651e-05 -1.7364637851715088 -0.0001255774695891887
4.250242909620283e-06 -1.6602661609649658 -4.722770427179057e-06
1.099190103559522e-05 -1.7503650188446045 3.1044452043715864e-05
7.587018899357645e-06 -1.5469355583190918 4.065611392434221e-06
9.90702687886369e-07 -1.6040676832199097 -3.173629374941811e-05
4.582198926073033e-06 -1.798811912536621 -1.2025948308291845e-06
6.649881470366381e-06 -1.6650441884994507 0.00016668868192937225
-0.0002195533161284402 -1.3804538249969482 0.00035409044357948005
0.00016089485143311322 -1.5589648485183716 6.225859124242561e-06
0.0002551274956203997 -1.3878744840621948 -2.4044902602327056e-06
-8.363788765564095e-06 -1.3622545003890991 -8.800569958111737e-06
7.999128683877643e-06 -1.4891688823699951 6.435874979615619e-07
-1.186635472549824e-05 -1.3460109233856201 -3.185070090694353e-05
-1.4962531167839188e-05 -1.5511878728866577 -1.8394708831692697e-06
7.834696589270607e-05 -1.3959318399429321 -6.762316479580477e-05
-1.3721336472372059e-05 -1.4250614643096924 -9.535490789858159e-06
-0.0003248676657676697 -1.321507215499878 0.001580874901264906
1.7908476365846582e-05 -1.4957692623138428 2.8129499696660787e-05
1.531057819192938e-06 -1.4401707649230957 -7.789198207319714e-06
0.001364424591884017 -1.4269553422927856 -0.0010260603157803416
-7.876011295593344e-06 -1.7064334154129028 -9.199123451253399e-05
0.00018792653281707317 -1.4736143350601196 -4.0973591239890084e-05
1.6832444089232013e-05 -1.5480905771255493 1.1756294952647295e-05
-0.0009713168255984783 -1.3774510622024536 0.00406023021787405
5.3048122936161235e-05 -1.4684754610061646 4.790007005794905e-05
2.394071088929195e-06 -1.3816652297973633 1.0852229934243951e-05
8.161619916791096e-06 -1.4664459228515625 -3.303076300653629e-05
-5.054048233432695e-05 -1.623734712600708 9.879242497845553e-06
-9.01721250556875e-06 -1.4331259727478027 -1.4735688637301791e-05
-7.19212175681605e-06 -1.5066180229187012 -1.4626209576817928e-07
1.7027210788000957e-06 -1.5993400812149048 1.2703982065431774e-05
1.1312549759168178e-05 -1.4405053853988647 8.745643572183326e-05
-4.878497747995425e-06 -1.440276861190796 3.989748438470997e-05
-1.1544505468918942e-05 -1.5295772552490234 0.0002125101163983345
4.240146154188551e-05 -1.4911789894104004 3.088456651312299e-05
5.212490577832796e-06 -1.4963635206222534 0.0017356256721541286
-1.332938495579583e-06 -1.5923718214035034 -1.9655055893963436e-07
5.493904154718621e-06 -1.5450875759124756 3.362614006618969e-05
7.885230297688395e-05 -1.423218011856079 7.422344788210467e-05
0.0005323116783984005 -1.1882567405700684 7.128495053621009e-05
2.8186999770696275e-05 -1.420766830444336 -2.3477054128306918e-05
2.7915213649976067e-05 -1.5471528768539429 -7.090594590408728e-05
5.7618208302301355e-06 -1.2348873615264893 -1.1479201930342242e-05
0.0012937273131683469 -1.3523905277252197 0.001090917969122529
-7.939700481074397e-06 -1.318387746810913 -2.0952606064383872e-05
-6.555196250701556e-06 -1.2594345808029175 -6.252097227843478e-05
1.3556512385548558e-05 -1.3915455341339111 -9.058190357791318e-07
-6.6944444370165e-06 -1.3196828365325928 -7.307078249141341e-07
-2.9393038403213723e-06 -1.3680099248886108 6.802555617468897e-06
1.0177377589570824e-05 -1.2565547227859497 4.539765359368175e-05
0.0004051945870742202 -1.2698936462402344 9.647917613619938e-05
-4.40463099948829e-06 -1.3784273862838745 -3.0312890885397792e-05
1.7439328075852245e-05 -1.291906714439392 -1.3974961802887265e-05
4.995249764760956e-05 -1.4905797243118286 2.3444625185220502e-05
-1.233404236700153e-05 -1.1767140626907349 -3.874517062740779e-08
1.1062789781135507e-05 -1.3650245666503906 -9.752603773449664e-07
0.0003106888325419277 -1.291741132736206 -0.001106666517443955
-7.093856766005047e-06 -1.296565294265747 -5.114298619446345e-05
-2.9093021112203132e-06 -1.2590930461883545 -4.8963418521452695e-05
2.0319403120083734e-06 -1.352205753326416 1.7371719707170996e-07
1.996571882045828e-06 -1.3392255306243896 -1.6649753888486885e-05
-1.2623686416191049e-06 -1.3060591220855713 1.264189563698892e-06
3.828635726677021e-06 -1.2589271068572998 3.797881072387099e-05
-9.607198080630042e-06 -1.244619607925415 4.538887878879905e-05
1.307927323068725e-05 -1.1644847393035889 -2.65384678641567e-05
4.6494416892528534e-05 -1.4616791009902954 -9.138839959632605e-05
2.6726977012003772e-05 -1.2020797729492188 -5.949847763986327e-05