# vtk DataFile Version 3.0
MPM particles frame 2
ASCII
DATASET UNSTRUCTURED_GRID

POINTS 767 float
18.36907196044922 25.348583221435547 1.1753921508789062
18.287931442260742 25.309627532958984 0.9293873906135559
18.026042938232422 25.274417877197266 0.8180392980575562
18.255447387695312 25.275854110717773 0.33971333503723145
18.174367904663086 25.262229919433594 0.23126056790351868
18.68866539001465 25.28765296936035 1.0684982538223267
18.21367645263672 25.314720153808594 0.5265702605247498
18.409406661987305 25.338891983032227 1.2387281656265259
19.033506393432617 25.360614776611328 0.5757285952568054
17.89838981628418 25.288949966430664 0.9144456386566162
18.194974899291992 25.27869987487793 1.0384660959243774
18.057207107543945 25.258241653442383 0.2952408790588379
17.96071434020996 25.28200912475586 0.6555850505828857
18.89877700805664 25.25472068786621 0.7590645551681519
18.096336364746094 25.249935150146484 0.39496245980262756
17.930103302001953 25.314224243164062 1.088942527770996
18.858863830566406 25.264135360717773 0.5719988942146301
18.231769561767578 25.248394012451172 0.2976177930831909
18.30861473083496 25.28228759765625 1.2113518714904785
18.94706153869629 25.280519485473633 0.41100016236305237
18.48942756652832 25.29469108581543 0.22194592654705048
17.90778160095215 25.351449966430664 0.8677926659584045
18.156862258911133 25.30560302734375 0.8265494704246521
17.77597999572754 25.25465965270996 0.8363863229751587
18.042577743530273 25.2734432220459 0.34464502334594727
18.89004135131836 25.29326629638672 0.8679929375648499
18.053613662719727 25.255168914794922 0.5506068468093872
17.919057846069336 25.264142990112305 0.4069179594516754
18.19015884399414 25.281023025512695 0.36736631393432617
18.89267921447754 25.254165649414062 0.9120321273803711
18.136579513549805 25.310747146606445 0.4953325688838959
18.772071838378906 25.353464126586914 0.6343507766723633
18.192344665527344 25.34813690185547 0.1800147444009781
18.908498764038086 25.343570709228516 0.5594891309738159
18.05945587158203 25.352676391601562 1.0576859712600708
18.449007034301758 25.323715209960938 0.07842237502336502
18.3146915435791 25.379350662231445 1.0298649072647095
18.088624954223633 25.33338165283203 1.1636309623718262
18.510818481445312 25.359479904174805 0.29576611518859863
18.264249801635742 25.362794876098633 0.7535163164138794
17.899736404418945 25.348819732666016 0.3830704092979431
17.94793128967285 25.316967010498047 0.7543189525604248
18.512428283691406 25.337398529052734 0.9472941756248474
18.175016403198242 25.37188148498535 0.5073260068893433
18.5998477935791 25.334930419921875 0.7399754524230957
18.154481887817383 25.374217987060547 0.5014391541481018
18.634628295898438 25.355634689331055 0.14638738334178925
18.390058517456055 25.355518341064453 0.746363639831543
18.558971405029297 25.32290267944336 0.4875165522098541
18.838029861450195 25.41637420654297 1.150480031967163
18.0300235748291 25.33307647705078 1.1667698621749878
18.24111557006836 25.370323181152344 0.2565205693244934
18.675827026367188 25.38713264465332 0.827392578125
18.537981033325195 25.3543643951416 0.9566379189491272
17.897720336914062 25.339075088500977 1.1394764184951782
18.593496322631836 25.40331268310547 0.2353787124156952
18.274330139160156 25.370777130126953 1.3279635906219482
18.508771896362305 25.34491539001465 1.0511486530303955
18.74295425415039 25.354965209960938 0.3877810835838318
18.29839515686035 25.33826446533203 1.2277828454971313
18.817808151245117 25.381799697875977 1.1745011806488037
18.55743980407715 25.477977752685547 0.8968177437782288
17.969064712524414 25.394350051879883 0.3871966600418091
17.906286239624023 25.383573532104492 0.8485355973243713
18.647958755493164 25.452442169189453 0.38005080819129944
18.815519332885742 25.489173889160156 0.4767356216907501
18.785011291503906 25.451885223388672 0.3023689389228821
17.888046264648438 25.494585037231445 1.0158753395080566
18.456329345703125 25.423070907592773 1.385166883468628
18.1614990234375 25.422264099121094 0.11744996905326843
18.296445846557617 25.412736892700195 0.8982378244400024
18.589738845825195 25.403409957885742 0.5967498421669006
18.763694763183594 25.44692039489746 0.42823368310928345
18.8297176361084 25.436450958251953 0.30563515424728394
18.144527435302734 25.355722427368164 0.49122917652130127
18.24048614501953 25.44707679748535 1.1612327098846436
18.930524826049805 25.43120765686035 0.5173740386962891
18.65145492553711 25.386474609375 1.1083790063858032
17.929643630981445 25.37936019897461 0.5778027772903442
17.865467071533203 25.527639389038086 0.41835975646972656
18.519250869750977 25.4332218170166 0.9037888646125793
18.869216918945312 25.45755386352539 0.2971799373626709
18.727462768554688 25.40660858154297 1.189136028289795
18.425783157348633 25.386409759521484 1.151218056678772
18.9993896484375 25.43458366394043 1.1049233675003052
18.696334838867188 25.416061401367188 1.1328901052474976
18.155046463012695 25.371400833129883 0.8520801663398743
18.49067497253418 25.35171890258789 0.27644625306129456
17.944467544555664 25.388154983520508 0.2707498073577881
18.703996658325195 25.441259384155273 0.2359963208436966
18.72972869873047 25.397220611572266 1.0829763412475586
18.958900451660156 25.450885772705078 0.5036775469779968
18.58125877380371 25.50821304321289 1.296299695968628
18.31803321838379 25.485280990600586 0.15405091643333435
19.005077362060547 25.47704315185547 0.6029192805290222
18.468196868896484 25.465892791748047 0.39070242643356323
18.68935203552246 25.50187873840332 1.268356442451477
18.5662899017334 25.445646286010742 0.24303627014160156
18.31656265258789 25.439001083374023 1.1691886186599731
18.795930862426758 25.455738067626953 1.13589346408844
18.987638473510742 25.44116973876953 0.3824603855609894
17.841381072998047 25.493330001831055 0.9477052092552185
18.62299346923828 25.481252670288086 0.36306941509246826
17.899959564208984 25.44974136352539 1.1473582983016968
18.295137405395508 25.50905990600586 1.0481479167938232
18.571590423583984 25.45866584777832 0.861312985420227
18.87143898010254 25.486042022705078 0.2581285238265991
18.577722549438477 25.482650756835938 1.1557981967926025
19.07120704650879 25.43585205078125 0.5548599362373352
18.700868606567383 25.466569900512695 0.34229451417922974
18.483369827270508 25.50423812866211 0.7875596880912781
18.005449295043945 25.513635635375977 0.36127132177352905
18.054698944091797 25.49016571044922 0.32323506474494934
18.921213150024414 25.530960083007812 0.9788218140602112
18.426603317260742 25.523927688598633 0.48125675320625305
17.986692428588867 25.493783950805664 0.34491321444511414
18.148174285888672 25.494556427001953 0.7737295627593994
18.774444580078125 25.49045753479004 0.963471531867981
17.792234420776367 25.561771392822266 0.5954601168632507
19.04659652709961 25.532806396484375 0.5994212031364441
18.280345916748047 25.51521873474121 0.07090133428573608
18.49959373474121 25.497875213623047 0.6239686012268066
18.73506736755371 25.554439544677734 0.5320227146148682
18.56098175048828 25.549053192138672 0.9779257774353027
18.44198989868164 25.561317443847656 0.7868692874908447
18.106769561767578 25.56020736694336 1.2909444570541382
17.881935119628906 25.569381713867188 1.0400289297103882
18.48178482055664 25.595792770385742 1.4325124025344849
18.6606502532959 25.514848709106445 0.2848444879055023
18.723852157592773 25.53847885131836 0.7743222117424011
18.880420684814453 25.521753311157227 0.8303000330924988
18.296262741088867 25.46764373779297 1.2341974973678589
18.105642318725586 25.551651000976562 0.8408388495445251
18.42886734008789 25.576005935668945 1.2127196788787842
18.151527404785156 25.552621841430664 1.2397408485412598
17.845470428466797 25.631471633911133 1.13592529296875
17.76675033569336 25.56564712524414 0.5098528265953064
18.00731086730957 25.540695190429688 0.8496841788291931
18.5969295501709 25.565759658813477 0.9241437911987305
18.87591552734375 25.540376663208008 0.8045942187309265
18.2237491607666 25.50988006591797 1.2967166900634766
18.327957153320312 25.538654327392578 0.5991763472557068
18.0887451171875 25.553409576416016 0.796697199344635
18.201236724853516 25.502511978149414 0.5124247074127197
18.590505599975586 25.535791397094727 0.6296981573104858
18.089574813842773 25.52529525756836 0.210778146982193
18.61550521850586 25.533016204833984 0.10095497220754623
19.008134841918945 25.481050491333008 0.5948140025138855
18.855907440185547 25.5105037689209 0.3208187520503998
18.392488479614258 25.57301139831543 0.09868573397397995
18.14682960510254 25.525896072387695 0.9931495785713196
18.439041137695312 25.549739837646484 0.6770437359809875
18.755752563476562 25.549327850341797 0.7544528841972351
18.005773544311523 25.576513290405273 0.40940380096435547
18.362285614013672 25.584903717041016 0.9318179488182068
18.172161102294922 25.589487075805664 0.277839720249176
17.959430694580078 25.5819149017334 0.8322451114654541
18.956716537475586 25.627344131469727 1.0092847347259521
18.501792907714844 25.630659103393555 0.5623539686203003
18.21245002746582 25.601003646850586 0.7459738254547119
18.386600494384766 25.637014389038086 0.1412615180015564
18.921720504760742 25.61518669128418 0.35857632756233215
18.07644271850586 25.61571502685547 0.6157373189926147
19.037723541259766 25.60831069946289 0.5462151765823364
18.72731590270996 25.62064552307129 0.15333636105060577
18.40897560119629 25.4853572845459 1.2200020551681519
17.855531692504883 25.81709861755371 1.1126065254211426
17.929637908935547 25.6195125579834 0.8348135352134705
18.59825325012207 25.564191818237305 1.2891885042190552
19.041976928710938 25.56095314025879 0.538712739944458
18.86504364013672 25.593212127685547 1.1392099857330322
18.051311492919922 25.616174697875977 0.5668968558311462
18.594406127929688 25.602048873901367 0.29235392808914185
18.564067840576172 25.597753524780273 0.819492518901825
18.102558135986328 25.593833923339844 1.1250176429748535
18.651649475097656 25.56200408935547 1.312025785446167
[...]
POINT_DATA 767
SCALARS radius float 1
LOOKUP_TABLE default
0.03
0.03
0.03
0.03
0.03
0.03
0.03
0.03
0.03
0.03
0.03
0.03
0.03
0.03
0.03
0.03
0.03
0.03
0.03
0.03
0.03
0.03
0.03
0.03
0.03
0.03
0.03
0.03
0.03
0.03
0.03
0.03
0.03
0.03
0.03
0.03
0.03
0.03
0.03
0.03
0.03
0.03
0.03
0.03
0.03
0.03
0.03
0.03
0.03
0.03
0.03
0.03
0.03
0.03
0.03
0.03
0.03
0.03
0.03
0.03
0.03
0.03
0.03
0.03
0.03
0.03
0.03
0.03
0.03
0.03
0.03
0.03
0.03
0.03
0.03
0.03
0.03
0.03
0.03
0.03
0.03
0.03
0.03
0.03
0.03
0.03
0.03
0.03
0.03
0.03
0.03
0.03
0.03
0.03
0.03
0.03
0.03
0.03
0.03
0.03
0.03
0.03
0.03
0.03
0.03
0.03
0.03
0.03
0.03
0.03
0.03
0.03
0.03
0.03
0.03
0.03
0.03
0.03
0.03
0.03
0.03
0.03
0.03
0.03
0.03
0.03
0.03
0.03
0.03
0.03
0.03
0.03
0.03
0.03
0.03
0.03
0.03
0.03
0.03
0.03
0.03
0.03
0.03
0.03
0.03
0.03
0.03
0.03
0.03
0.03
0.03
0.03
0.03
0.03
0.03
0.03
0.03
0.03
0.03
0.03
0.03
0.03
0.03
0.03
0.03
0.03
0.03
0.03
0.03
0.03
0.03
0.03
0.03
0.03
0.03
0.03
0.03
0.03
0.03
0.03
0.03
0.03
0.03
0.03
0.03
0.03
0.03
0.03
0.03
0.03
0.03
0.03
0.03
0.03
0.03
0.03
0.03
0.03
0.03
0.03
0.03
0.03
0.03
0.03
0.03
0.03
0.03
0.03
0.03
0.03
0.03
0.03
0.03
0.03
0.03
0.03
0.03
0.03
0.03
0.03
0.03
0.03
0.03
0.03
0.03
0.03
0.03
0.03
0.03
0.03
0.03
0.03
0.03
0.03
0.03
0.03
0.03
0.03
0.03
0.03
0.03
0.03
0.03
0.03
0.03
0.03
0.03
0.03
0.03
0.03
0.03
0.03
0.03
0.03
0.03
0.03
0.03
0.03
0.03
0.03
0.03
0.03
0.03
0.03
0.03
0.03
0.03
0.03
0.03
0.03
0.03
0.03
0.03
0.03
0.03
0.03
0.03
0.03
0.03
0.03
0.03
0.03
0.03
0.03
0.03
0.03
0.03
0.03
0.03
0.03
0.03
0.03
0.03
0.03
0.03
0.03
0.03
0.03
0.03
0.03
0.03
0.03
0.03
0.03
0.03
0.03
0.03
0.03
0.03
0.03
0.03
0.03
0.03
0.03
0.03
0.03
0.03
0.03
0.03
0.03
0.03
0.03
0.03
0.03
0.03
0.03
0.03
0.03
0.03
0.03
0.03
0.03
0.03
0.03
0.03
0.03
0.03
0.03
0.03
0.03
0.03
0.03
0.03
0.03
0.03
0.03
0.03
0.03
0.03
0.03
0.03
0.03
0.03
0.03
0.03
0.03
0.03
0.03
0.03
0.03
0.03
0.03
0.03
0.03
0.03
0.03
0.03
0.03
0.03
0.03
0.03
0.03
0.03
0.03
0.03
0.03
0.03
0.03
0.03
0.03
0.03
0.03
0.03
0.03
0.03
0.03
0.03
0.03
0.03
0.03
0.03
0.03
0.03
0.03
0.03
0.03
0.03
0.03
0.03
0.03
0.03
0.03
0.03
0.03
0.03
0.03
0.03
0.03
0.03
0.03
0.03
0.03
0.03
0.03
0.03
0.03
0.03
0.03
0.03
0.03
0.03
0.03
0.03
0.03
0.03
0.03
0.03
0.03
0.03
0.03
0.03
0.03
0.03
0.03
0.03
0.03
0.03
0.03
0.03
0.03
0.03
0.03
0.03
0.03
0.03
0.03
0.03
0.03
0.03
0.03
0.03
0.03
0.03
0.03
0.03
0.03
0.03
0.03
0.03
0.03
0.03
0.03
0.03
0.03
0.03
0.03
0.03
0.03
0.03
0.03
0.03
0.03
0.03
0.03
0.03
0.03
0.03
0.03
0.03
0.03
0.03
0.03
0.03
0.03
0.03
0.03
0.03
0.03
0.03
0.03
0.03
0.03
0.03
0.03
0.03
0.03
0.03
0.03
0.03
0.03
0.03
0.03
0.03
0.03
0.03
0.03
0.03
0.03
0.03
0.03
0.03
0.03
0.03
0.03
0.03
0.03
0.03
0.03
0.03
0.03
0.03
0.03
0.03
0.03
0.03
0.03
0.03
0.03
0.03
0.03
0.03
0.03
0.03
0.03
0.03
0.03
0.03
0.03
0.03
0.03
0.03
0.03
0.03
0.03
0.03
0.03
0.03
0.03
0.03
0.03
0.03
0.03
0.03
0.03
0.03
0.03
0.03
0.03
0.03
0.03
0.03
0.03
0.03
0.03
0.03
0.03
0.03
0.03
0.03
0.03
0.03
0.03
0.03
0.03
0.03
0.03
0.03
0.03
0.03
0.03
0.03
0.03
0.03
0.03
0.03
0.03
0.03
0.03
0.03
0.03
0.03
0.03
0.03
0.03
0.03
0.03
0.03
0.03
0.03
0.03
0.03
0.03
0.03
0.03
0.03
0.03
0.03
0.03
0.03
0.03
0.03
0.03
0.03
0.03
0.03
0.03
0.03
0.03
0.03
0.03
0.03
0.03
0.03
0.03
0.03
0.03
0.03
0.03
0.03
0.03
0.03
0.03
0.03
0.03
0.03
0.03
0.03
0.03
0.03
0.03
0.03
0.03
0.03
0.03
0.03
0.03
0.03
0.03
0.03
0.03
0.03
0.03
0.03
0.03
0.03
0.03
0.03
0.03
0.03
0.03
0.03
0.03
0.03
0.03
0.03
0.03
0.03
0.03
0.03
0.03
0.03
0.03
0.03
0.03
0.03
0.03
0.03
0.03
0.03
0.03
0.03
0.03
0.03
0.03
0.03
0.03
0.03
0.03
0.03
0.03
0.03
0.03
0.03
0.03
0.03
0.03
0.03
0.03
0.03
0.03
0.03
0.03
0.03
0.03
0.03
0.03
0.03
0.03
0.03
0.03
0.03
0.03
0.03
0.03
0.03
0.03
0.03
0.03
0.03
0.03
0.03
0.03
0.03
0.03
0.03
0.03
0.03
0.03
0.03
0.03
0.03
0.03
0.03
0.03
0.03
0.03
0.03
0.03
0.03
0.03
0.03
0.03
0.03
0.03
0.03
0.03
0.03
0.03
0.03
0.03
0.03
0.03
0.03
0.03
0.03
0.03
0.03
0.03
0.03
0.03
0.03
0.03
0.03
0.03
0.03
0.03
0.03

VECTORS velocity float
0.0021028746850788593 -4.35673189163208 -0.004262284375727177
-1.0198715244769119e-05 -4.4250102043151855 4.448360050446354e-05
-0.0002723597572185099 -4.429157733917236 -0.00010107039997819811
4.507431367528625e-05 -4.522873401641846 -0.00041331423562951386
0.0003557313175406307 -4.481402397155762 -0.0013954766327515244
-7.836671284167096e-05 -4.423388957977295 0.00026877049822360277
0.0004450430569704622 -4.385575294494629 0.0006616739556193352
0.007189974654465914 -4.299826145172119 -0.01486985944211483
-0.010275966487824917 -4.244558334350586 0.016256539151072502
-6.173238944029436e-05 -4.442058086395264 -0.00020816377946175635
1.5609883803335833e-06 -4.450316905975342 -2.1597427348751808e-06
5.052817414252786e-06 -4.473784923553467 0.0011171238729730248
1.8480657672625966e-05 -4.469996452331543 7.281547732418403e-05
-1.1428975085436832e-05 -4.452552318572998 0.0010344216134399176
-0.0021531879901885986 -4.493593692779541 0.00414908304810524
0.0008075786172412336 -4.399231910705566 4.712675217888318e-05
0.0002419204101897776 -4.476014614105225 0.001706378418020904
0.0006335253128781915 -4.512964725494385 0.00220052944496274
0.0009484778856858611 -4.413773536682129 -0.002069736598059535
-1.388553027936723e-05 -4.401556015014648 6.296540959738195e-06
-0.0019007088849321008 -4.456002235412598 0.006568919867277145
-8.026934665394947e-05 -4.326516151428223 -3.913488910711749e-07
-8.250279643107206e-05 -4.369030475616455 0.00014680955791845918
0.0006725664716213942 -4.487443923950195 -7.093798194546252e-05
-0.0006856678519397974 -4.438290119171143 -0.0034371763467788696
2.62078447121894e-05 -4.425217628479004 -0.0012365924194455147
-0.00249013165012002 -4.478714942932129 -0.0012532826513051987
9.664023309596814e-06 -4.551238059997559 -1.1200938388356008e-05
0.0025839097797870636 -4.489399433135986 -0.004876632709056139
-2.8537683647300582e-06 -4.496718406677246 4.149265441810712e-05
-0.002534658880904317 -4.36622953414917 -0.001479410333558917
-4.750118387164548e-05 -4.306543350219727 -1.4217082025425043e-05
-6.0669775848509744e-05 -4.326303958892822 -0.000646313070319593
-8.771704597165808e-05 -4.339512348175049 -0.0010000126203522086
7.119033398339525e-07 -4.326882362365723 -6.494036642834544e-05
0.00036327604902908206 -4.328403949737549 0.001121023902669549
0.0002427421131869778 -4.27282190322876 0.00010054666199721396
8.731526031624526e-05 -4.3198089599609375 0.0001486735709477216
0.003173339180648327 -4.307432174682617 0.0003550986002665013
-0.00012242046068422496 -4.3040971755981445 0.0003588588151615113
-1.7061373000615276e-05 -4.225668907165527 0.00015474749670829624
-2.2869697204441763e-05 -4.351496696472168 -0.0002833592297974974
-7.834376447135583e-05 -4.392724514007568 -4.3515134166227654e-05
0.0007615991635248065 -4.318325519561768 0.0005685687647201121
-0.0003619713243097067 -4.310690402984619 -0.00013164513802621514
0.0015045290347188711 -4.315804481506348 0.0009572640410624444
0.0015465375036001205 -4.27058219909668 -0.0022334884852170944
-1.1879039448103867e-05 -4.317117214202881 -3.663435563794337e-05
-2.234635303466348e-06 -4.319411754608154 5.5086843531171326e-06
0.00015622949285898358 -4.1697492599487305 -0.004760327283293009
-5.526923268917017e-05 -4.378871917724609 7.31001200620085e-05
-0.0004957676865160465 -4.28702449798584 0.0004632442141883075
0.0007993078324943781 -4.205899715423584 1.4891769751557149e-05
-0.00016378059808630496 -4.273414134979248 -4.009896201750962e-06
-8.311057172250003e-05 -4.308629035949707 0.00030422944109886885
-0.0002047183079412207 -4.188168525695801 -0.0006005120812915266
-3.902304160874337e-05 -4.266555309295654 1.4075892977416515e-05
8.108279143925756e-05 -4.362215995788574 -9.435840183869004e-05
9.375593072036281e-05 -4.2958455085754395 -8.21905632619746e-05
-0.00030872682691551745 -4.330458641052246 -0.0002249445824418217
0.0002587717317510396 -4.228665828704834 0.005067861173301935
-0.00025548148551024497 -4.039535999298096 0.00021096102136652917
9.779606671145302e-07 -4.184940814971924 0.00011149988858960569
0.0002337623736821115 -4.158576965332031 -1.9078808691119775e-05
0.00018185126828029752 -4.1243896484375 -0.00014555465895682573
-4.9148868129123e-05 -3.9863195419311523 -0.00026506223366595805
2.7992226023343392e-05 -4.116946697235107 -2.9283428375492804e-05
-0.00022142395027913153 -3.9919486045837402 -0.0003836654359474778
-6.220023351488635e-06 -4.088304042816162 3.812727129570703e-07
-0.00026500466628931463 -4.181845188140869 0.0017961147241294384
-1.3984901670482941e-05 -4.157731056213379 -3.6930828173353802e-06
1.1148047178721754e-06 -4.163126468658447 -4.5799424697179347e-07
8.078267455857713e-06 -4.116455078125 8.891861398296896e-06
-2.3532436443929328e-06 -4.139760494232178 -3.644801608970738e-06
0.0027699407655745745 -4.329805850982666 0.0024401370901614428
-1.282122411794262e-05 -4.104450225830078 -0.00024907468468882143
-4.1812530980678275e-05 -4.158590316772461 -0.0002356659242650494
-2.7949188734055497e-05 -4.203330993652344 4.758548311656341e-05
-7.074276254570577e-06 -4.215140342712402 -8.033101039472967e-05
0.001727776019833982 -3.895489454269409 0.0016187014989554882
-0.00011201684537809342 -4.175342559814453 0.00012995940051041543
-1.2867589020970627e-06 -4.070746898651123 -1.2788850654033013e-06
-5.005655839340761e-05 -4.189947128295898 0.00024349172599613667
-0.00020652155217248946 -4.196714878082275 0.000657830445561558
-3.583609941415489e-05 -4.147942543029785 -0.002263950416818261
-1.5519486623816192e-05 -4.206131935119629 -0.00016282140859402716
-3.7119716580491513e-06 -4.240367889404297 1.927979064930696e-05
-0.0017129831248894334 -4.299361228942871 -0.005727993790060282
0.0009691927116364241 -4.212069511413574 0.0006689008441753685
3.73508628399577e-05 -4.1263909339904785 1.4406560694624204e-05
3.7784753658343107e-05 -4.206192493438721 -0.00010589643352432176
8.320768785097243e-08 -4.082853317260742 -4.862386413151398e-05
-0.00034853495890274644 -3.91662335395813 0.0002488188911229372
-8.300684567075223e-05 -3.978774070739746 -2.455415051372256e-05
0.0018778762314468622 -4.026540756225586 -0.003429061034694314
0.0004148930893279612 -4.037174701690674 -0.0005777496844530106
-6.217523332452402e-05 -3.9962120056152344 3.0058521588216536e-05
0.0004882863722741604 -4.072991371154785 -0.001490923808887601
-0.002617458812892437 -4.142932415008545 0.0030147910583764315
-0.0004425955412443727 -4.095006465911865 -0.00040102857747115195
1.211623748531565e-05 -4.084571838378906 3.8881921682332177e-07
-0.00011816056212410331 -3.996190309524536 2.8006654247292317e-05
-0.00025300789275206625 -4.045691967010498 0.0002635861455928534
-6.986526568653062e-05 -4.102953910827637 0.00012150835391366854
-1.6697059663783875e-06 -3.959362745285034 3.903804099536501e-05
-0.0004414211434777826 -4.044651031494141 0.0001820381876314059
5.7695428949955385e-06 -3.965507745742798 -4.5539527491200715e-06
6.334707336463907e-07 -3.9902114868164062 -1.4948917851143051e-05
0.005385351832956076 -4.120966911315918 -0.00815154891461134
9.308809967478737e-05 -4.074896812438965 -3.655088585219346e-05
-5.234672062215395e-05 -3.9619839191436768 -0.00011568739864742383
-7.4433978625165764e-06 -3.966076612472534 1.9018107195734046e-05
7.560939138784306e-06 -4.036777973175049 -2.147080749637098e-06
-4.515362888923846e-05 -3.8914060592651367 0.00031252976623363793
-0.0003703561669681221 -3.8671882152557373 0.0005775914178229868
-4.3896907300222665e-06 -4.046808242797852 4.408762379171094e-06
-2.4949324142653495e-05 -3.9993467330932617 8.542390787624754e-06
-2.5807290512602776e-05 -4.00506067276001 -9.638261690270156e-05
3.7277327464835253e-06 -3.7868967056274414 2.020758984144777e-06
0.0006657097255811095 -3.9243814945220947 -0.00043281441321596503
2.529782614146825e-05 -3.962289571762085 0.00011581599392229691
-0.0017708779778331518 -4.003297328948975 -0.0042618801817297935
-2.0277837393223308e-05 -3.7966248989105225 -2.7509202482178807e-05
-2.887917980842758e-05 -3.839996814727783 1.6508902263012715e-05
-6.6218049141753e-06 -3.792370557785034 -6.954583113838453e-06
-0.0009060032316483557 -3.787433624267578 -0.0006272312020882964
-0.0001315400586463511 -3.796947717666626 -0.0003421972505748272
0.0028473103884607553 -3.751201868057251 -7.817273581167683e-05
-0.0001307353377342224 -3.9872794151306152 0.0003635086177382618
-6.830506754340604e-05 -3.8996524810791016 -1.3735427273786627e-05
0.0006865081377327442 -3.9592936038970947 -0.00013470149133354425
-0.000437143404269591 -4.069954872131348 0.00048074161168187857
-7.0821297413203865e-06 -3.848858594894409 2.8993570140301017e-06
-0.0030811026226729155 -3.7820441722869873 0.0077318293042480946
-6.982054401305504e-06 -3.8908510208129883 -4.606976290233433e-05
0.00013704145385418087 -3.6440041065216064 -0.00011579117563087493
0.017528783529996872 -3.8429784774780273 0.006745975464582443
0.00021111527166794986 -3.855980634689331 7.89695986895822e-05
0.00016163900727406144 -3.7953989505767822 8.560582500649616e-05
-0.0007183922571130097 -3.8844404220581055 -3.289794403826818e-05
9.331469482276589e-05 -3.901519298553467 -1.3169732255846611e-06
5.083744781586574e-06 -3.8444736003875732 4.235012602293864e-05
-1.1481249657663284e-06 -3.8422796726226807 -1.5222054798869067e-06
-2.5676390578155406e-05 -4.01304292678833 -0.00011034691124223173
-7.331441793212434e-06 -3.8240854740142822 5.593859668806545e-07
-2.8718602607114008e-06 -3.8925652503967285 -8.074570700955519e-07
-0.0009629691485315561 -3.8824450969696045 0.001342874951660633
0.002034552162513137 -4.035218238830566 -0.0037502578925341368
-9.53989274421474e-06 -3.972240686416626 2.7936484912061132e-06
-9.643323210184462e-06 -3.7941267490386963 -2.023377874138532e-06
-2.682327931324835e-06 -3.9042811393737793 -3.866941824526293e-06
0.00039994739927351475 -3.8488287925720215 0.0018651783466339111
8.835961125441827e-06 -3.8284401893615723 -4.3447948883112986e-07
-7.813788215571549e-06 -3.7597310543060303 4.525707845459692e-05
2.0973882783437148e-05 -3.768559694290161 -5.655137101712171e-06
-5.349287675926462e-05 -3.7624495029449463 -1.2441842955013271e-05
0.00018148536037188023 -3.806464433670044 9.056104318005964e-05
-3.099792229477316e-05 -3.670149087905884 0.0016100597567856312
0.0011835405603051186 -3.7140297889709473 0.0017283136257901788
8.281040209112689e-05 -3.7090342044830322 -0.0002862194669432938
-1.6206761301873485e-06 -3.663606643676758 2.561188523486635e-07
7.412730155920144e-06 -3.7343385219573975 -3.1062876360010705e-07
0.00045004309504292905 -3.7291579246520996 0.000996588496491313
-5.969340054434724e-05 -3.7151687145233154 3.358276080689393e-05
-0.00017114410002250224 -3.6425232887268066 0.00028287735767662525
-0.004031996242702007 -4.063723564147949 0.011134075000882149
9.855742973741144e-06 -3.0508432388305664 2.3370503186015412e-05
8.155339310178533e-05 -3.7016942501068115 0.00015892277588136494
0.00021475636458490044 -3.8412227630615234 -0.00028066884260624647
0.0005525315646082163 -3.8859965801239014 -0.0009532948606647551
7.367978014372056e-06 -3.7822961807250977 5.276233787299134e-05
-0.00044445483945310116 -3.715628147125244 -0.0009108941303566098
9.699389192974195e-05 -3.7461180686950684 6.681365630356595e-05
-0.0001149969466496259 -3.6972367763519287 -0.0005112049402669072
-1.78138398041483e-05 -3.739288806915283 -8.089374750852585e-05
0.00022717354295309633 -3.796887159347534 -0.00010042316716862842
-6.909583316883072e-05 -3.6989221572875977 0.00013485955423675478
0.0038954082410782576 -3.76908802986145 -0.00030826005968265235
-6.587724783457816e-05 -3.6410152912139893 4.863160211243667e-05
2.23954557441175e-05 -3.920154094696045 -0.00011101303243776783
-0.0026211203075945377 -3.723400115966797 -0.0007817650912329555
0.00010573478357400745 -3.9196603298187256 0.0002773813030216843
7.928916602395475e-06 -3.673335552215576 1.6120557120302692e-06
2.8042537451256067e-05 -3.757642984390259 8.387585694435984e-06
1.3919585398980416e-05 -3.407884120941162 -4.093139068572782e-06
-0.00019517635519150645 -3.498073101043701 -2.6074845663970336e-05
-4.3259475205559283e-05 -3.4873640537261963 -9.744162525748834e-06
1.9414361304370686e-05 -3.5941171646118164 -5.721284105675295e-05
-2.921482882811688e-05 -3.5539157390594482 0.0002213964908150956
1.1355443348293193e-05 -3.542454957962036 3.464211113168858e-05
0.0010360516607761383 -3.4870152473449707 -0.0016840033931657672
-2.543997652537655e-06 -3.633850574493408 5.295183655107394e-06
-2.3291072466236074e-06 -3.449894905090332 -3.3463227282481967e-06
-0.00015438444097526371 -3.5834219455718994 -1.7152151485788636e-05
0.0003088914672844112 -3.5943963527679443 0.0008919195970520377
-6.92092453391524e-06 -3.613969326019287 -7.481623470084742e-05
-8.754157533985563e-06 -3.3414700031280518 3.378852170499158e-06
4.093131792615168e-06 -3.5315845012664795 9.361800039187074e-06
0.0005860991077497602 -3.6441729068756104 0.0003434179234318435
-0.0012077023275196552 -3.5764565467834473 0.0024254852905869484
2.70555869974487e-06 -3.579256057739258 1.29312502394896e-06
-0.00019007555965799838 -3.5184006690979004 0.0007437727763317525
0.0008627046481706202 -3.5545754432678223 0.000673911883495748
-1.2147596862632781e-05 -3.556575298309326 4.579027518047951e-06
8.221555617637932e-06 -3.596647262573242 3.0016153687029146e-05
8.340847853105515e-05 -3.6510393619537354 -0.00018448015907779336
-2.14725878322497e-05 -3.4253039360046387 -2.6420169888297096e-05
2.5798322894843295e-05 -3.645134449005127 -0.0001194380602100864
0.00017614667012821883 -3.589308738708496 7.933367305668071e-05
1.3229890100774355e-05 -3.6646552085876465 2.1755002308054827e-05
3.9761827792972326e-05 -3.5019025802612305 -4.5792283344781026e-05
1.0186813597101718e-05 -3.5125787258148193 2.0791514543816447e-05
6.1833525251131505e-06 -3.716794967651367 -2.2853328118799254e-06
-6.859661425551167e-06 -3.6274683475494385 0.00014202715829014778
-0.00018192900461144745 -3.299210786819458 0.0002394640468992293
0.000171585037605837 -3.5035812854766846 5.700349902326707e-06
0.0007738459389656782 -3.287142038345337 4.494709719438106e-05
1.336127581907931e-07 -3.3413584232330322 -5.522546416614205e-06
7.644795914529823e-06 -3.418259859085083 -2.0748642270973505e-07
-3.2140989787876606e-05 -3.2984137535095215 -8.939006511354819e-05
-2.4863351427484304e-05 -3.4926223754882812 -1.6423470015070052e-06
9.144542855210602e-05 -3.3487770557403564 -7.390042446786538e-05
-1.3810828932037111e-05 -3.352766275405884 -8.949343282438349e-06
-0.00036125537008047104 -3.2844841480255127 0.0016886238008737564
-3.061729148612358e-05 -3.432769775390625 8.289489051094279e-05
-7.238985517687979e-07 -3.3959567546844482 -1.0499214113224298e-05
0.003574035596102476 -3.3411498069763184 -0.001946686184965074
-2.2982325390330516e-05 -3.6566903591156006 -0.0001948343269759789
0.00016364982002414763 -3.399343490600586 -2.8342488803900778e-05
1.3655534530698787e-05 -3.479780673980713 1.319514285569312e-05
-0.0009111540275625885 -3.3530826568603516 0.003800093661993742
6.31394432275556e-05 -3.373790740966797 6.631267751799896e-05
5.1720067858695984e-05 -3.360041379928589 -1.0615734936436638e-05
0.0001921051589306444 -3.2340545654296875 -0.0008248917292803526
-5.724259972339496e-05 -3.546116590499878 6.192952241690364e-06
0.00027567267534323037 -3.392383575439453 0.000377672171453014
-8.22348301880993e-05 -3.43817138671875 -2.8742081212840276e-06
-2.9684576929867035e-06 -3.4806787967681885 1.571083157614339e-05
9.106612560572103e-05 -3.3568880558013916 0.00018857751274481416
4.41319789388217e-05 -3.36702823638916 -4.614056524587795e-05
-4.863424692302942e-05 -3.5882391929626465 0.0003455761761870235
0.00035540101816877723 -3.4100310802459717 0.00035971603938378394
4.900207386526745e-06 -3.401643753051758 0.0016055539017543197
-7.329170443881594e-07 -3.4698147773742676 3.638491818946932e-07
1.677561886026524e-05 -3.4563515186309814 0.00011293152783764526
4.710693610832095e-05 -3.3489882946014404 5.605636033578776e-05
0.0014838381903246045 -3.042227268218994 -0.0012650430435314775
2.643324842210859e-05 -3.2937734127044678 -3.048856342502404e-05